
     Program PWSCF v.6.4 starts on  3Aug2019 at 17: 8:23 

     This program is part of the open-source Quantum ESPRESSO suite
     for quantum simulation of materials; please cite
         "P. Giannozzi et al., J. Phys.:Condens. Matter 21 395502 (2009);
         "P. Giannozzi et al., J. Phys.:Condens. Matter 29 465901 (2017);
          URL http://www.quantum-espresso.org", 
     in publications or presentations arising from this work. More details at
     http://www.quantum-espresso.org/quote

     Parallel version (MPI), running on    40 processors

     MPI processes distributed on     1 nodes
     R & G space division:  proc/nbgrp/npool/nimage =      40
     Waiting for input...
     Reading input from standard input

     Current dimensions of program PWSCF are:
     Max number of different atomic species (ntypx) = 10
     Max number of k-points (npk) =  40000
     Max angular momentum in pseudopotentials (lmaxx) =  3
     Message from routine iosys:
     london is obsolete, use "vdw_corr='grimme-d2'" instead

     Atomic positions and unit cell read from directory:
     ./GS.save/

               file Si.pbe-n-kjpaw_psl.1.0.0.UPF: wavefunction(s)  3S 3P renormalized

     -------------------------------------------------
     Parameters for Dispersion (Grimme-D2) Correction:
     -------------------------------------------------
       atom      VdW radius       C_6     

        Si         3.243        320.200
     Message from routine setup:
     At least one non s.o. pseudo

     Subspace diagonalization in iterative solution of the eigenvalue problem:
     one sub-group per band group will be used
     scalapack distributed-memory algorithm (size of sub-group:  4*  4 procs)


     Parallelization info
     --------------------
     sticks:   dense  smooth     PW     G-vecs:    dense   smooth      PW
     Min          21      21      6                  420      420      67
     Max          22      22      7                  426      426      71
     Sum         859     859    253                16889    16889    2733



     bravais-lattice index     =            0
     lattice parameter (alat)  =       7.2571  a.u.
     unit-cell volume          =     270.2564 (a.u.)^3
     number of atoms/cell      =            2
     number of atomic types    =            1
     number of electrons       =         8.00
     number of Kohn-Sham states=           16
     kinetic-energy cutoff     =      60.0000  Ry
     charge density cutoff     =     240.0000  Ry
     Exchange-correlation      = SLA PW PBX PBC ( 1  4  3  4 0 0)
     Using LIBXC version       =    4   2   3
     Non magnetic calculation with spin-orbit


     celldm(1)=   7.257109  celldm(2)=   0.000000  celldm(3)=   0.000000
     celldm(4)=   0.000000  celldm(5)=   0.000000  celldm(6)=   0.000000

     crystal axes: (cart. coord. in units of alat)
               a(1) = (   0.000000   0.707107   0.707107 )  
               a(2) = (   0.707107   0.000000   0.707107 )  
               a(3) = (   0.707107   0.707107   0.000000 )  

     reciprocal axes: (cart. coord. in units 2 pi/alat)
               b(1) = ( -0.707107  0.707107  0.707107 )  
               b(2) = (  0.707107 -0.707107  0.707107 )  
               b(3) = (  0.707107  0.707107 -0.707107 )  


     PseudoPot. # 1 for Si read from file:
     ../PP/Si.pbe-n-kjpaw_psl.1.0.0.UPF
     MD5 check sum: c39c59da582df4a0d9f10159256ea34e
     Pseudo is Projector augmented-wave + core cor, Zval =  4.0
     Generated using "atomic" code by A. Dal Corso v.6.3
     Shape of augmentation charge: PSQ
     Using radial grid of 1141 points,  6 beta functions with: 
                l(1) =   0
                l(2) =   0
                l(3) =   1
                l(4) =   1
                l(5) =   2
                l(6) =   2
     Q(r) pseudized with 0 coefficients 


     atomic species   valence    mass     pseudopotential
        Si             4.00    28.08550     Si( 1.00)

     48 Sym. Ops., with inversion, found (36 have fractional translation)


                                    s                        frac. trans.

      isym =  1     identity                                     

 cryst.   s( 1) = (     1          0          0      )
                  (     0          1          0      )
                  (     0          0          1      )

 cart.    s( 1) = (  1.0000000 -0.0000000  0.0000000 )
                  ( -0.0000000  1.0000000  0.0000000 )
                  ( -0.0000000  0.0000000  1.0000000 )


      isym =  2     180 deg rotation - cart. axis [0,0,1]        

 cryst.   s( 2) = (     0          1         -1      )    f =(  0.0000000 )
                  (     1          0         -1      )       (  0.0000000 )
                  (     0          0         -1      )       (  0.5000000 )

 cart.    s( 2) = ( -1.0000000  0.0000000  0.0000000 )    f =(  0.3535534 )
                  (  0.0000000 -1.0000000  0.0000000 )       (  0.3535534 )
                  (  0.0000000 -0.0000000  1.0000000 )       (  0.0000000 )


      isym =  3     180 deg rotation - cart. axis [0,1,0]        

 cryst.   s( 3) = (     0         -1          1      )    f =(  0.0000000 )
                  (     0         -1          0      )       (  0.5000000 )
                  (     1         -1          0      )       (  0.0000000 )

 cart.    s( 3) = ( -1.0000000 -0.0000000 -0.0000000 )    f =(  0.3535534 )
                  (  0.0000000  1.0000000 -0.0000000 )       (  0.0000000 )
                  (  0.0000000  0.0000000 -1.0000000 )       (  0.3535534 )


      isym =  4     180 deg rotation - cart. axis [1,0,0]        

 cryst.   s( 4) = (    -1          0          0      )    f =(  0.5000000 )
                  (    -1          0          1      )       (  0.0000000 )
                  (    -1          1          0      )       (  0.0000000 )

 cart.    s( 4) = (  1.0000000  0.0000000 -0.0000000 )    f =(  0.0000000 )
                  ( -0.0000000 -1.0000000 -0.0000000 )       (  0.3535534 )
                  ( -0.0000000 -0.0000000 -1.0000000 )       (  0.3535534 )


      isym =  5     180 deg rotation - cart. axis [1,1,0]        

 cryst.   s( 5) = (    -1          0          1      )    f =(  0.0000000 )
                  (     0         -1          1      )       (  0.0000000 )
                  (     0          0          1      )       (  0.5000000 )

 cart.    s( 5) = ( -0.0000000  1.0000000 -0.0000000 )    f =(  0.3535534 )
                  (  1.0000000 -0.0000000 -0.0000000 )       (  0.3535534 )
                  (  0.0000000 -0.0000000 -1.0000000 )       (  0.0000000 )


      isym =  6     180 deg rotation - cart. axis [1,-1,0]       

 cryst.   s( 6) = (     0         -1          0      )
                  (    -1          0          0      )
                  (     0          0         -1      )

 cart.    s( 6) = (  0.0000000 -1.0000000 -0.0000000 )
                  ( -1.0000000  0.0000000 -0.0000000 )
                  ( -0.0000000  0.0000000 -1.0000000 )


      isym =  7      90 deg rotation - cart. axis [0,0,-1]       

 cryst.   s( 7) = (     0          1          0      )    f =(  0.0000000 )
                  (     0          1         -1      )       (  0.5000000 )
                  (    -1          1          0      )       (  0.0000000 )

 cart.    s( 7) = (  0.0000000  1.0000000  0.0000000 )    f =(  0.3535534 )
                  ( -1.0000000 -0.0000000  0.0000000 )       (  0.0000000 )
                  ( -0.0000000 -0.0000000  1.0000000 )       (  0.3535534 )


      isym =  8      90 deg rotation - cart. axis [0,0,1]        

 cryst.   s( 8) = (     1          0         -1      )    f =(  0.5000000 )
                  (     1          0          0      )       (  0.0000000 )
                  (     1         -1          0      )       (  0.0000000 )

 cart.    s( 8) = ( -0.0000000 -1.0000000  0.0000000 )    f =(  0.0000000 )
                  (  1.0000000  0.0000000  0.0000000 )       (  0.3535534 )
                  (  0.0000000  0.0000000  1.0000000 )       (  0.3535534 )


      isym =  9     180 deg rotation - cart. axis [1,0,1]        

 cryst.   s( 9) = (    -1          1          0      )    f =(  0.0000000 )
                  (     0          1          0      )       (  0.5000000 )
                  (     0          1         -1      )       (  0.0000000 )

 cart.    s( 9) = (  0.0000000  0.0000000  1.0000000 )    f =(  0.3535534 )
                  (  0.0000000 -1.0000000 -0.0000000 )       (  0.0000000 )
                  (  1.0000000 -0.0000000 -0.0000000 )       (  0.3535534 )


      isym = 10     180 deg rotation - cart. axis [-1,0,1]       

 cryst.   s(10) = (     0          0         -1      )
                  (     0         -1          0      )
                  (    -1          0          0      )

 cart.    s(10) = ( -0.0000000  0.0000000 -1.0000000 )
                  ( -0.0000000 -1.0000000  0.0000000 )
                  ( -1.0000000 -0.0000000  0.0000000 )


      isym = 11      90 deg rotation - cart. axis [0,1,0]        

 cryst.   s(11) = (     0          0          1      )    f =(  0.0000000 )
                  (    -1          0          1      )       (  0.0000000 )
                  (     0         -1          1      )       (  0.5000000 )

 cart.    s(11) = ( -0.0000000 -0.0000000  1.0000000 )    f =(  0.3535534 )
                  ( -0.0000000  1.0000000 -0.0000000 )       (  0.3535534 )
                  ( -1.0000000  0.0000000 -0.0000000 )       (  0.0000000 )


      isym = 12      90 deg rotation - cart. axis [0,-1,0]       

 cryst.   s(12) = (     1         -1          0      )    f =(  0.5000000 )
                  (     1          0         -1      )       (  0.0000000 )
                  (     1          0          0      )       (  0.0000000 )

 cart.    s(12) = (  0.0000000 -0.0000000 -1.0000000 )    f =(  0.0000000 )
                  (  0.0000000  1.0000000  0.0000000 )       (  0.3535534 )
                  (  1.0000000  0.0000000  0.0000000 )       (  0.3535534 )


      isym = 13     180 deg rotation - cart. axis [0,1,1]        

 cryst.   s(13) = (     1          0          0      )    f =(  0.5000000 )
                  (     1         -1          0      )       (  0.0000000 )
                  (     1          0         -1      )       (  0.0000000 )

 cart.    s(13) = ( -1.0000000  0.0000000 -0.0000000 )    f =(  0.0000000 )
                  (  0.0000000  0.0000000  1.0000000 )       (  0.3535534 )
                  (  0.0000000  1.0000000  0.0000000 )       (  0.3535534 )


      isym = 14     180 deg rotation - cart. axis [0,1,-1]       

 cryst.   s(14) = (    -1          0          0      )
                  (     0          0         -1      )
                  (     0         -1          0      )

 cart.    s(14) = ( -1.0000000 -0.0000000  0.0000000 )
                  (  0.0000000 -0.0000000 -1.0000000 )
                  (  0.0000000 -1.0000000 -0.0000000 )


      isym = 15      90 deg rotation - cart. axis [-1,0,0]       

 cryst.   s(15) = (     0         -1          1      )    f =(  0.0000000 )
                  (     0          0          1      )       (  0.0000000 )
                  (    -1          0          1      )       (  0.5000000 )

 cart.    s(15) = (  1.0000000 -0.0000000 -0.0000000 )    f =(  0.3535534 )
                  ( -0.0000000 -0.0000000  1.0000000 )       (  0.3535534 )
                  ( -0.0000000 -1.0000000  0.0000000 )       (  0.0000000 )


      isym = 16      90 deg rotation - cart. axis [1,0,0]        

 cryst.   s(16) = (     0          1         -1      )    f =(  0.0000000 )
                  (    -1          1          0      )       (  0.5000000 )
                  (     0          1          0      )       (  0.0000000 )

 cart.    s(16) = (  1.0000000  0.0000000  0.0000000 )    f =(  0.3535534 )
                  ( -0.0000000  0.0000000 -1.0000000 )       (  0.0000000 )
                  ( -0.0000000  1.0000000 -0.0000000 )       (  0.3535534 )


      isym = 17     120 deg rotation - cart. axis [-1,-1,-1]     

 cryst.   s(17) = (     0          0          1      )
                  (     1          0          0      )
                  (     0          1          0      )

 cart.    s(17) = (  0.0000000  1.0000000 -0.0000000 )
                  (  0.0000000 -0.0000000  1.0000000 )
                  (  1.0000000 -0.0000000  0.0000000 )


      isym = 18     120 deg rotation - cart. axis [-1,1,1]       

 cryst.   s(18) = (     1         -1          0      )    f =(  0.0000000 )
                  (     0         -1          1      )       (  0.5000000 )
                  (     0         -1          0      )       (  0.0000000 )

 cart.    s(18) = ( -0.0000000 -1.0000000 -0.0000000 )    f =(  0.3535534 )
                  ( -0.0000000  0.0000000  1.0000000 )       (  0.0000000 )
                  ( -1.0000000  0.0000000  0.0000000 )       (  0.3535534 )


      isym = 19     120 deg rotation - cart. axis [1,1,-1]       

 cryst.   s(19) = (    -1          1          0      )    f =(  0.5000000 )
                  (    -1          0          0      )       (  0.0000000 )
                  (    -1          0          1      )       (  0.0000000 )

 cart.    s(19) = ( -0.0000000  1.0000000  0.0000000 )    f =(  0.0000000 )
                  ( -0.0000000 -0.0000000 -1.0000000 )       (  0.3535534 )
                  ( -1.0000000 -0.0000000 -0.0000000 )       (  0.3535534 )


      isym = 20     120 deg rotation - cart. axis [1,-1,1]       

 cryst.   s(20) = (     0          0         -1      )    f =(  0.0000000 )
                  (     0          1         -1      )       (  0.0000000 )
                  (     1          0         -1      )       (  0.5000000 )

 cart.    s(20) = (  0.0000000 -1.0000000  0.0000000 )    f =(  0.3535534 )
                  (  0.0000000  0.0000000 -1.0000000 )       (  0.3535534 )
                  (  1.0000000  0.0000000 -0.0000000 )       (  0.0000000 )


      isym = 21     120 deg rotation - cart. axis [1,1,1]        

 cryst.   s(21) = (     0          1          0      )
                  (     0          0          1      )
                  (     1          0          0      )

 cart.    s(21) = ( -0.0000000  0.0000000  1.0000000 )
                  (  1.0000000  0.0000000 -0.0000000 )
                  (  0.0000000  1.0000000 -0.0000000 )


      isym = 22     120 deg rotation - cart. axis [-1,1,-1]      

 cryst.   s(22) = (    -1          0          1      )    f =(  0.5000000 )
                  (    -1          1          0      )       (  0.0000000 )
                  (    -1          0          0      )       (  0.0000000 )

 cart.    s(22) = (  0.0000000 -0.0000000  1.0000000 )    f =(  0.0000000 )
                  ( -1.0000000 -0.0000000 -0.0000000 )       (  0.3535534 )
                  ( -0.0000000 -1.0000000 -0.0000000 )       (  0.3535534 )


      isym = 23     120 deg rotation - cart. axis [1,-1,-1]      

 cryst.   s(23) = (     1          0         -1      )    f =(  0.0000000 )
                  (     0          0         -1      )       (  0.0000000 )
                  (     0          1         -1      )       (  0.5000000 )

 cart.    s(23) = (  0.0000000  0.0000000 -1.0000000 )    f =(  0.3535534 )
                  ( -1.0000000  0.0000000  0.0000000 )       (  0.3535534 )
                  ( -0.0000000  1.0000000  0.0000000 )       (  0.0000000 )


      isym = 24     120 deg rotation - cart. axis [-1,-1,1]      

 cryst.   s(24) = (     0         -1          0      )    f =(  0.0000000 )
                  (     1         -1          0      )       (  0.5000000 )
                  (     0         -1          1      )       (  0.0000000 )

 cart.    s(24) = ( -0.0000000 -0.0000000 -1.0000000 )    f =(  0.3535534 )
                  (  1.0000000 -0.0000000  0.0000000 )       (  0.0000000 )
                  (  0.0000000 -1.0000000  0.0000000 )       (  0.3535534 )


      isym = 25     inversion                                    

 cryst.   s(25) = (    -1          0          0      )
                  (     0         -1          0      )
                  (     0          0         -1      )

 cart.    s(25) = ( -1.0000000  0.0000000 -0.0000000 )
                  (  0.0000000 -1.0000000 -0.0000000 )
                  (  0.0000000 -0.0000000 -1.0000000 )


      isym = 26     inv. 180 deg rotation - cart. axis [0,0,1]   

 cryst.   s(26) = (     0         -1          1      )    f =(  0.0000000 )
                  (    -1          0          1      )       (  0.0000000 )
                  (     0          0          1      )       (  0.5000000 )

 cart.    s(26) = (  1.0000000 -0.0000000 -0.0000000 )    f =(  0.3535534 )
                  ( -0.0000000  1.0000000 -0.0000000 )       (  0.3535534 )
                  ( -0.0000000  0.0000000 -1.0000000 )       (  0.0000000 )


      isym = 27     inv. 180 deg rotation - cart. axis [0,1,0]   

 cryst.   s(27) = (     0          1         -1      )    f =(  0.0000000 )
                  (     0          1          0      )       (  0.5000000 )
                  (    -1          1          0      )       (  0.0000000 )

 cart.    s(27) = (  1.0000000  0.0000000  0.0000000 )    f =(  0.3535534 )
                  ( -0.0000000 -1.0000000  0.0000000 )       (  0.0000000 )
                  ( -0.0000000 -0.0000000  1.0000000 )       (  0.3535534 )


      isym = 28     inv. 180 deg rotation - cart. axis [1,0,0]   

 cryst.   s(28) = (     1          0          0      )    f =(  0.5000000 )
                  (     1          0         -1      )       (  0.0000000 )
                  (     1         -1          0      )       (  0.0000000 )

 cart.    s(28) = ( -1.0000000 -0.0000000  0.0000000 )    f =(  0.0000000 )
                  (  0.0000000  1.0000000  0.0000000 )       (  0.3535534 )
                  (  0.0000000  0.0000000  1.0000000 )       (  0.3535534 )


      isym = 29     inv. 180 deg rotation - cart. axis [1,1,0]   

 cryst.   s(29) = (     1          0         -1      )    f =(  0.0000000 )
                  (     0          1         -1      )       (  0.0000000 )
                  (     0          0         -1      )       (  0.5000000 )

 cart.    s(29) = (  0.0000000 -1.0000000  0.0000000 )    f =(  0.3535534 )
                  ( -1.0000000  0.0000000  0.0000000 )       (  0.3535534 )
                  ( -0.0000000  0.0000000  1.0000000 )       (  0.0000000 )


      isym = 30     inv. 180 deg rotation - cart. axis [1,-1,0]  

 cryst.   s(30) = (     0          1          0      )
                  (     1          0          0      )
                  (     0          0          1      )

 cart.    s(30) = ( -0.0000000  1.0000000  0.0000000 )
                  (  1.0000000 -0.0000000  0.0000000 )
                  (  0.0000000 -0.0000000  1.0000000 )


      isym = 31     inv.  90 deg rotation - cart. axis [0,0,-1]  

 cryst.   s(31) = (     0         -1          0      )    f =(  0.0000000 )
                  (     0         -1          1      )       (  0.5000000 )
                  (     1         -1          0      )       (  0.0000000 )

 cart.    s(31) = ( -0.0000000 -1.0000000 -0.0000000 )    f =(  0.3535534 )
                  (  1.0000000  0.0000000 -0.0000000 )       (  0.0000000 )
                  (  0.0000000  0.0000000 -1.0000000 )       (  0.3535534 )


      isym = 32     inv.  90 deg rotation - cart. axis [0,0,1]   

 cryst.   s(32) = (    -1          0          1      )    f =(  0.5000000 )
                  (    -1          0          0      )       (  0.0000000 )
                  (    -1          1          0      )       (  0.0000000 )

 cart.    s(32) = (  0.0000000  1.0000000 -0.0000000 )    f =(  0.0000000 )
                  ( -1.0000000 -0.0000000 -0.0000000 )       (  0.3535534 )
                  ( -0.0000000 -0.0000000 -1.0000000 )       (  0.3535534 )


      isym = 33     inv. 180 deg rotation - cart. axis [1,0,1]   

 cryst.   s(33) = (     1         -1          0      )    f =(  0.0000000 )
                  (     0         -1          0      )       (  0.5000000 )
                  (     0         -1          1      )       (  0.0000000 )

 cart.    s(33) = ( -0.0000000 -0.0000000 -1.0000000 )    f =(  0.3535534 )
                  ( -0.0000000  1.0000000  0.0000000 )       (  0.0000000 )
                  ( -1.0000000  0.0000000  0.0000000 )       (  0.3535534 )


      isym = 34     inv. 180 deg rotation - cart. axis [-1,0,1]  

 cryst.   s(34) = (     0          0          1      )
                  (     0          1          0      )
                  (     1          0          0      )

 cart.    s(34) = (  0.0000000 -0.0000000  1.0000000 )
                  (  0.0000000  1.0000000 -0.0000000 )
                  (  1.0000000  0.0000000 -0.0000000 )


      isym = 35     inv.  90 deg rotation - cart. axis [0,1,0]   

 cryst.   s(35) = (     0          0         -1      )    f =(  0.0000000 )
                  (     1          0         -1      )       (  0.0000000 )
                  (     0          1         -1      )       (  0.5000000 )

 cart.    s(35) = (  0.0000000  0.0000000 -1.0000000 )    f =(  0.3535534 )
                  (  0.0000000 -1.0000000  0.0000000 )       (  0.3535534 )
                  (  1.0000000 -0.0000000  0.0000000 )       (  0.0000000 )


      isym = 36     inv.  90 deg rotation - cart. axis [0,-1,0]  

 cryst.   s(36) = (    -1          1          0      )    f =(  0.5000000 )
                  (    -1          0          1      )       (  0.0000000 )
                  (    -1          0          0      )       (  0.0000000 )

 cart.    s(36) = ( -0.0000000  0.0000000  1.0000000 )    f =(  0.0000000 )
                  ( -0.0000000 -1.0000000 -0.0000000 )       (  0.3535534 )
                  ( -1.0000000 -0.0000000 -0.0000000 )       (  0.3535534 )


      isym = 37     inv. 180 deg rotation - cart. axis [0,1,1]   

 cryst.   s(37) = (    -1          0          0      )    f =(  0.5000000 )
                  (    -1          1          0      )       (  0.0000000 )
                  (    -1          0          1      )       (  0.0000000 )

 cart.    s(37) = (  1.0000000 -0.0000000  0.0000000 )    f =(  0.0000000 )
                  ( -0.0000000 -0.0000000 -1.0000000 )       (  0.3535534 )
                  ( -0.0000000 -1.0000000 -0.0000000 )       (  0.3535534 )


      isym = 38     inv. 180 deg rotation - cart. axis [0,1,-1]  

 cryst.   s(38) = (     1          0          0      )
                  (     0          0          1      )
                  (     0          1          0      )

 cart.    s(38) = (  1.0000000  0.0000000 -0.0000000 )
                  ( -0.0000000  0.0000000  1.0000000 )
                  ( -0.0000000  1.0000000  0.0000000 )


      isym = 39     inv.  90 deg rotation - cart. axis [-1,0,0]  

 cryst.   s(39) = (     0          1         -1      )    f =(  0.0000000 )
                  (     0          0         -1      )       (  0.0000000 )
                  (     1          0         -1      )       (  0.5000000 )

 cart.    s(39) = ( -1.0000000  0.0000000  0.0000000 )    f =(  0.3535534 )
                  (  0.0000000  0.0000000 -1.0000000 )       (  0.3535534 )
                  (  0.0000000  1.0000000 -0.0000000 )       (  0.0000000 )


      isym = 40     inv.  90 deg rotation - cart. axis [1,0,0]   

 cryst.   s(40) = (     0         -1          1      )    f =(  0.0000000 )
                  (     1         -1          0      )       (  0.5000000 )
                  (     0         -1          0      )       (  0.0000000 )

 cart.    s(40) = ( -1.0000000 -0.0000000 -0.0000000 )    f =(  0.3535534 )
                  (  0.0000000 -0.0000000  1.0000000 )       (  0.0000000 )
                  (  0.0000000 -1.0000000  0.0000000 )       (  0.3535534 )


      isym = 41     inv. 120 deg rotation - cart. axis [-1,-1,-1]

 cryst.   s(41) = (     0          0         -1      )
                  (    -1          0          0      )
                  (     0         -1          0      )

 cart.    s(41) = ( -0.0000000 -1.0000000  0.0000000 )
                  ( -0.0000000  0.0000000 -1.0000000 )
                  ( -1.0000000  0.0000000 -0.0000000 )


      isym = 42     inv. 120 deg rotation - cart. axis [-1,1,1]  

 cryst.   s(42) = (    -1          1          0      )    f =(  0.0000000 )
                  (     0          1         -1      )       (  0.5000000 )
                  (     0          1          0      )       (  0.0000000 )

 cart.    s(42) = (  0.0000000  1.0000000  0.0000000 )    f =(  0.3535534 )
                  (  0.0000000 -0.0000000 -1.0000000 )       (  0.0000000 )
                  (  1.0000000 -0.0000000 -0.0000000 )       (  0.3535534 )


      isym = 43     inv. 120 deg rotation - cart. axis [1,1,-1]  

 cryst.   s(43) = (     1         -1          0      )    f =(  0.5000000 )
                  (     1          0          0      )       (  0.0000000 )
                  (     1          0         -1      )       (  0.0000000 )

 cart.    s(43) = (  0.0000000 -1.0000000 -0.0000000 )    f =(  0.0000000 )
                  (  0.0000000  0.0000000  1.0000000 )       (  0.3535534 )
                  (  1.0000000  0.0000000  0.0000000 )       (  0.3535534 )


      isym = 44     inv. 120 deg rotation - cart. axis [1,-1,1]  

 cryst.   s(44) = (     0          0          1      )    f =(  0.0000000 )
                  (     0         -1          1      )       (  0.0000000 )
                  (    -1          0          1      )       (  0.5000000 )

 cart.    s(44) = ( -0.0000000  1.0000000 -0.0000000 )    f =(  0.3535534 )
                  ( -0.0000000 -0.0000000  1.0000000 )       (  0.3535534 )
                  ( -1.0000000 -0.0000000  0.0000000 )       (  0.0000000 )


      isym = 45     inv. 120 deg rotation - cart. axis [1,1,1]   

 cryst.   s(45) = (     0         -1          0      )
                  (     0          0         -1      )
                  (    -1          0          0      )

 cart.    s(45) = (  0.0000000 -0.0000000 -1.0000000 )
                  ( -1.0000000 -0.0000000  0.0000000 )
                  ( -0.0000000 -1.0000000  0.0000000 )


      isym = 46     inv. 120 deg rotation - cart. axis [-1,1,-1] 

 cryst.   s(46) = (     1          0         -1      )    f =(  0.5000000 )
                  (     1         -1          0      )       (  0.0000000 )
                  (     1          0          0      )       (  0.0000000 )

 cart.    s(46) = ( -0.0000000  0.0000000 -1.0000000 )    f =(  0.0000000 )
                  (  1.0000000  0.0000000  0.0000000 )       (  0.3535534 )
                  (  0.0000000  1.0000000  0.0000000 )       (  0.3535534 )


      isym = 47     inv. 120 deg rotation - cart. axis [1,-1,-1] 

 cryst.   s(47) = (    -1          0          1      )    f =(  0.0000000 )
                  (     0          0          1      )       (  0.0000000 )
                  (     0         -1          1      )       (  0.5000000 )

 cart.    s(47) = ( -0.0000000 -0.0000000  1.0000000 )    f =(  0.3535534 )
                  (  1.0000000 -0.0000000 -0.0000000 )       (  0.3535534 )
                  (  0.0000000 -1.0000000 -0.0000000 )       (  0.0000000 )


      isym = 48     inv. 120 deg rotation - cart. axis [-1,-1,1] 

 cryst.   s(48) = (     0          1          0      )    f =(  0.0000000 )
                  (    -1          1          0      )       (  0.5000000 )
                  (     0          1         -1      )       (  0.0000000 )

 cart.    s(48) = (  0.0000000  0.0000000  1.0000000 )    f =(  0.3535534 )
                  ( -1.0000000  0.0000000 -0.0000000 )       (  0.0000000 )
                  ( -0.0000000  1.0000000 -0.0000000 )       (  0.3535534 )


   Cartesian axes

     site n.     atom                  positions (alat units)
         1           Si  tau(   1) = (   0.1767767   0.1767767   0.1767767  )
         2           Si  tau(   2) = (  -0.1767767  -0.1767767  -0.1767767  )

   Crystallographic axes

     site n.     atom                  positions (cryst. coord.)
         1           Si  tau(   1) = (  0.1250000  0.1250000  0.1250000  )
         2           Si  tau(   2) = ( -0.1250000 -0.1250000 -0.1250000  )

     number of k points=   351
                       cart. coord. in units 2pi/alat
        k(    1) = (   0.0000000   0.3535534   0.7071068), wk =   0.0028490
        k(    2) = (  -0.0050508   0.3535534   0.7020560), wk =   0.0028490
        k(    3) = (  -0.0101015   0.3535534   0.6970053), wk =   0.0028490
        k(    4) = (  -0.0151523   0.3535534   0.6919545), wk =   0.0028490
        k(    5) = (  -0.0202031   0.3535534   0.6869037), wk =   0.0028490
        k(    6) = (  -0.0252538   0.3535534   0.6818530), wk =   0.0028490
        k(    7) = (  -0.0303046   0.3535534   0.6768022), wk =   0.0028490
        k(    8) = (  -0.0353553   0.3535534   0.6717514), wk =   0.0028490
        k(    9) = (  -0.0404061   0.3535534   0.6667007), wk =   0.0028490
        k(   10) = (  -0.0454569   0.3535534   0.6616499), wk =   0.0028490
        k(   11) = (  -0.0505076   0.3535534   0.6565992), wk =   0.0028490
        k(   12) = (  -0.0555584   0.3535534   0.6515484), wk =   0.0028490
        k(   13) = (  -0.0606092   0.3535534   0.6464976), wk =   0.0028490
        k(   14) = (  -0.0656599   0.3535534   0.6414469), wk =   0.0028490
        k(   15) = (  -0.0707107   0.3535534   0.6363961), wk =   0.0028490
        k(   16) = (  -0.0757614   0.3535534   0.6313453), wk =   0.0028490
        k(   17) = (  -0.0808122   0.3535534   0.6262946), wk =   0.0028490
        k(   18) = (  -0.0858630   0.3535534   0.6212438), wk =   0.0028490
        k(   19) = (  -0.0909137   0.3535534   0.6161931), wk =   0.0028490
        k(   20) = (  -0.0959645   0.3535534   0.6111423), wk =   0.0028490
        k(   21) = (  -0.1010153   0.3535534   0.6060915), wk =   0.0028490
        k(   22) = (  -0.1060660   0.3535534   0.6010408), wk =   0.0028490
        k(   23) = (  -0.1111168   0.3535534   0.5959900), wk =   0.0028490
        k(   24) = (  -0.1161675   0.3535534   0.5909392), wk =   0.0028490
        k(   25) = (  -0.1212183   0.3535534   0.5858885), wk =   0.0028490
        k(   26) = (  -0.1262691   0.3535534   0.5808377), wk =   0.0028490
        k(   27) = (  -0.1313198   0.3535534   0.5757870), wk =   0.0028490
        k(   28) = (  -0.1363706   0.3535534   0.5707362), wk =   0.0028490
        k(   29) = (  -0.1414214   0.3535534   0.5656854), wk =   0.0028490
        k(   30) = (  -0.1464721   0.3535534   0.5606347), wk =   0.0028490
        k(   31) = (  -0.1515229   0.3535534   0.5555839), wk =   0.0028490
        k(   32) = (  -0.1565736   0.3535534   0.5505331), wk =   0.0028490
        k(   33) = (  -0.1616244   0.3535534   0.5454824), wk =   0.0028490
        k(   34) = (  -0.1666752   0.3535534   0.5404316), wk =   0.0028490
        k(   35) = (  -0.1717259   0.3535534   0.5353808), wk =   0.0028490
        k(   36) = (  -0.1767767   0.3535534   0.5303301), wk =   0.0028490
        k(   37) = (  -0.1818275   0.3535534   0.5252793), wk =   0.0028490
        k(   38) = (  -0.1868782   0.3535534   0.5202286), wk =   0.0028490
        k(   39) = (  -0.1919290   0.3535534   0.5151778), wk =   0.0028490
        k(   40) = (  -0.1969797   0.3535534   0.5101270), wk =   0.0028490
        k(   41) = (  -0.2020305   0.3535534   0.5050763), wk =   0.0028490
        k(   42) = (  -0.2070813   0.3535534   0.5000255), wk =   0.0028490
        k(   43) = (  -0.2121320   0.3535534   0.4949747), wk =   0.0028490
        k(   44) = (  -0.2171828   0.3535534   0.4899240), wk =   0.0028490
        k(   45) = (  -0.2222336   0.3535534   0.4848732), wk =   0.0028490
        k(   46) = (  -0.2272843   0.3535534   0.4798225), wk =   0.0028490
        k(   47) = (  -0.2323351   0.3535534   0.4747717), wk =   0.0028490
        k(   48) = (  -0.2373858   0.3535534   0.4697209), wk =   0.0028490
        k(   49) = (  -0.2424366   0.3535534   0.4646702), wk =   0.0028490
        k(   50) = (  -0.2474874   0.3535534   0.4596194), wk =   0.0028490
        k(   51) = (  -0.2525381   0.3535534   0.4545686), wk =   0.0028490
        k(   52) = (  -0.2575889   0.3535534   0.4495179), wk =   0.0028490
        k(   53) = (  -0.2626397   0.3535534   0.4444671), wk =   0.0028490
        k(   54) = (  -0.2676904   0.3535534   0.4394164), wk =   0.0028490
        k(   55) = (  -0.2727412   0.3535534   0.4343656), wk =   0.0028490
        k(   56) = (  -0.2777919   0.3535534   0.4293148), wk =   0.0028490
        k(   57) = (  -0.2828427   0.3535534   0.4242641), wk =   0.0028490
        k(   58) = (  -0.2878935   0.3535534   0.4192133), wk =   0.0028490
        k(   59) = (  -0.2929442   0.3535534   0.4141625), wk =   0.0028490
        k(   60) = (  -0.2979950   0.3535534   0.4091118), wk =   0.0028490
        k(   61) = (  -0.3030458   0.3535534   0.4040610), wk =   0.0028490
        k(   62) = (  -0.3080965   0.3535534   0.3990103), wk =   0.0028490
        k(   63) = (  -0.3131473   0.3535534   0.3939595), wk =   0.0028490
        k(   64) = (  -0.3181981   0.3535534   0.3889087), wk =   0.0028490
        k(   65) = (  -0.3232488   0.3535534   0.3838580), wk =   0.0028490
        k(   66) = (  -0.3282996   0.3535534   0.3788072), wk =   0.0028490
        k(   67) = (  -0.3333503   0.3535534   0.3737564), wk =   0.0028490
        k(   68) = (  -0.3384011   0.3535534   0.3687057), wk =   0.0028490
        k(   69) = (  -0.3434519   0.3535534   0.3636549), wk =   0.0028490
        k(   70) = (  -0.3485026   0.3535534   0.3586042), wk =   0.0028490
        k(   71) = (  -0.3535534   0.3535534   0.3535534), wk =   0.0028490
        k(   72) = (  -0.3485026   0.3485026   0.3485026), wk =   0.0028490
        k(   73) = (  -0.3434519   0.3434519   0.3434519), wk =   0.0028490
        k(   74) = (  -0.3384011   0.3384011   0.3384011), wk =   0.0028490
        k(   75) = (  -0.3333503   0.3333503   0.3333503), wk =   0.0028490
        k(   76) = (  -0.3282996   0.3282996   0.3282996), wk =   0.0028490
        k(   77) = (  -0.3232488   0.3232488   0.3232488), wk =   0.0028490
        k(   78) = (  -0.3181981   0.3181981   0.3181981), wk =   0.0028490
        k(   79) = (  -0.3131473   0.3131473   0.3131473), wk =   0.0028490
        k(   80) = (  -0.3080965   0.3080965   0.3080965), wk =   0.0028490
        k(   81) = (  -0.3030458   0.3030458   0.3030458), wk =   0.0028490
        k(   82) = (  -0.2979950   0.2979950   0.2979950), wk =   0.0028490
        k(   83) = (  -0.2929442   0.2929442   0.2929442), wk =   0.0028490
        k(   84) = (  -0.2878935   0.2878935   0.2878935), wk =   0.0028490
        k(   85) = (  -0.2828427   0.2828427   0.2828427), wk =   0.0028490
        k(   86) = (  -0.2777919   0.2777919   0.2777919), wk =   0.0028490
        k(   87) = (  -0.2727412   0.2727412   0.2727412), wk =   0.0028490
        k(   88) = (  -0.2676904   0.2676904   0.2676904), wk =   0.0028490
        k(   89) = (  -0.2626397   0.2626397   0.2626397), wk =   0.0028490
        k(   90) = (  -0.2575889   0.2575889   0.2575889), wk =   0.0028490
        k(   91) = (  -0.2525381   0.2525381   0.2525381), wk =   0.0028490
        k(   92) = (  -0.2474874   0.2474874   0.2474874), wk =   0.0028490
        k(   93) = (  -0.2424366   0.2424366   0.2424366), wk =   0.0028490
        k(   94) = (  -0.2373858   0.2373858   0.2373858), wk =   0.0028490
        k(   95) = (  -0.2323351   0.2323351   0.2323351), wk =   0.0028490
        k(   96) = (  -0.2272843   0.2272843   0.2272843), wk =   0.0028490
        k(   97) = (  -0.2222336   0.2222336   0.2222336), wk =   0.0028490
        k(   98) = (  -0.2171828   0.2171828   0.2171828), wk =   0.0028490
        k(   99) = (  -0.2121320   0.2121320   0.2121320), wk =   0.0028490
        k(  100) = (  -0.2070813   0.2070813   0.2070813), wk =   0.0028490
        k(  101) = (  -0.2020305   0.2020305   0.2020305), wk =   0.0028490
        k(  102) = (  -0.1969797   0.1969797   0.1969797), wk =   0.0028490
        k(  103) = (  -0.1919290   0.1919290   0.1919290), wk =   0.0028490
        k(  104) = (  -0.1868782   0.1868782   0.1868782), wk =   0.0028490
        k(  105) = (  -0.1818275   0.1818275   0.1818275), wk =   0.0028490
        k(  106) = (  -0.1767767   0.1767767   0.1767767), wk =   0.0028490
        k(  107) = (  -0.1717259   0.1717259   0.1717259), wk =   0.0028490
        k(  108) = (  -0.1666752   0.1666752   0.1666752), wk =   0.0028490
        k(  109) = (  -0.1616244   0.1616244   0.1616244), wk =   0.0028490
        k(  110) = (  -0.1565736   0.1565736   0.1565736), wk =   0.0028490
        k(  111) = (  -0.1515229   0.1515229   0.1515229), wk =   0.0028490
        k(  112) = (  -0.1464721   0.1464721   0.1464721), wk =   0.0028490
        k(  113) = (  -0.1414214   0.1414214   0.1414214), wk =   0.0028490
        k(  114) = (  -0.1363706   0.1363706   0.1363706), wk =   0.0028490
        k(  115) = (  -0.1313198   0.1313198   0.1313198), wk =   0.0028490
        k(  116) = (  -0.1262691   0.1262691   0.1262691), wk =   0.0028490
        k(  117) = (  -0.1212183   0.1212183   0.1212183), wk =   0.0028490
        k(  118) = (  -0.1161675   0.1161675   0.1161675), wk =   0.0028490
        k(  119) = (  -0.1111168   0.1111168   0.1111168), wk =   0.0028490
        k(  120) = (  -0.1060660   0.1060660   0.1060660), wk =   0.0028490
        k(  121) = (  -0.1010153   0.1010153   0.1010153), wk =   0.0028490
        k(  122) = (  -0.0959645   0.0959645   0.0959645), wk =   0.0028490
        k(  123) = (  -0.0909137   0.0909137   0.0909137), wk =   0.0028490
        k(  124) = (  -0.0858630   0.0858630   0.0858630), wk =   0.0028490
        k(  125) = (  -0.0808122   0.0808122   0.0808122), wk =   0.0028490
        k(  126) = (  -0.0757614   0.0757614   0.0757614), wk =   0.0028490
        k(  127) = (  -0.0707107   0.0707107   0.0707107), wk =   0.0028490
        k(  128) = (  -0.0656599   0.0656599   0.0656599), wk =   0.0028490
        k(  129) = (  -0.0606092   0.0606092   0.0606092), wk =   0.0028490
        k(  130) = (  -0.0555584   0.0555584   0.0555584), wk =   0.0028490
        k(  131) = (  -0.0505076   0.0505076   0.0505076), wk =   0.0028490
        k(  132) = (  -0.0454569   0.0454569   0.0454569), wk =   0.0028490
        k(  133) = (  -0.0404061   0.0404061   0.0404061), wk =   0.0028490
        k(  134) = (  -0.0353553   0.0353553   0.0353553), wk =   0.0028490
        k(  135) = (  -0.0303046   0.0303046   0.0303046), wk =   0.0028490
        k(  136) = (  -0.0252538   0.0252538   0.0252538), wk =   0.0028490
        k(  137) = (  -0.0202031   0.0202031   0.0202031), wk =   0.0028490
        k(  138) = (  -0.0151523   0.0151523   0.0151523), wk =   0.0028490
        k(  139) = (  -0.0101015   0.0101015   0.0101015), wk =   0.0028490
        k(  140) = (  -0.0050508   0.0050508   0.0050508), wk =   0.0028490
        k(  141) = (   0.0000000   0.0000000   0.0000000), wk =   0.0028490
        k(  142) = (  -0.0000000   0.0000000   0.0101015), wk =   0.0028490
        k(  143) = (  -0.0000000   0.0000000   0.0202031), wk =   0.0028490
        k(  144) = (   0.0000000  -0.0000000   0.0303046), wk =   0.0028490
        k(  145) = (  -0.0000000   0.0000000   0.0404061), wk =   0.0028490
        k(  146) = (  -0.0000000   0.0000000   0.0505076), wk =   0.0028490
        k(  147) = (   0.0000000  -0.0000000   0.0606092), wk =   0.0028490
        k(  148) = (   0.0000000  -0.0000000   0.0707107), wk =   0.0028490
        k(  149) = (  -0.0000000   0.0000000   0.0808122), wk =   0.0028490
        k(  150) = (  -0.0000000   0.0000000   0.0909137), wk =   0.0028490
        k(  151) = (  -0.0000000   0.0000000   0.1010153), wk =   0.0028490
        k(  152) = (   0.0000000  -0.0000000   0.1111168), wk =   0.0028490
        k(  153) = (   0.0000000  -0.0000000   0.1212183), wk =   0.0028490
        k(  154) = (  -0.0000000   0.0000000   0.1313198), wk =   0.0028490
        k(  155) = (   0.0000000  -0.0000000   0.1414214), wk =   0.0028490
        k(  156) = (  -0.0000000   0.0000000   0.1515229), wk =   0.0028490
        k(  157) = (  -0.0000000   0.0000000   0.1616244), wk =   0.0028490
        k(  158) = (   0.0000000  -0.0000000   0.1717259), wk =   0.0028490
        k(  159) = (  -0.0000000   0.0000000   0.1818275), wk =   0.0028490
        k(  160) = (   0.0000000  -0.0000000   0.1919290), wk =   0.0028490
        k(  161) = (  -0.0000000   0.0000000   0.2020305), wk =   0.0028490
        k(  162) = (   0.0000000  -0.0000000   0.2121320), wk =   0.0028490
        k(  163) = (   0.0000000  -0.0000000   0.2222336), wk =   0.0028490
        k(  164) = (  -0.0000000   0.0000000   0.2323351), wk =   0.0028490
        k(  165) = (   0.0000000  -0.0000000   0.2424366), wk =   0.0028490
        k(  166) = (   0.0000000  -0.0000000   0.2525381), wk =   0.0028490
        k(  167) = (  -0.0000000   0.0000000   0.2626397), wk =   0.0028490
        k(  168) = (   0.0000000  -0.0000000   0.2727412), wk =   0.0028490
        k(  169) = (   0.0000000  -0.0000000   0.2828427), wk =   0.0028490
        k(  170) = (   0.0000000  -0.0000000   0.2929442), wk =   0.0028490
        k(  171) = (  -0.0000000   0.0000000   0.3030458), wk =   0.0028490
        k(  172) = (  -0.0000000   0.0000000   0.3131473), wk =   0.0028490
        k(  173) = (  -0.0000000   0.0000000   0.3232488), wk =   0.0028490
        k(  174) = (   0.0000000  -0.0000000   0.3333503), wk =   0.0028490
        k(  175) = (   0.0000000  -0.0000000   0.3434519), wk =   0.0028490
        k(  176) = (   0.0000000   0.0000000   0.3535534), wk =   0.0028490
        k(  177) = (  -0.0000000   0.0000000   0.3636549), wk =   0.0028490
        k(  178) = (  -0.0000000   0.0000000   0.3737564), wk =   0.0028490
        k(  179) = (   0.0000000  -0.0000000   0.3838580), wk =   0.0028490
        k(  180) = (   0.0000000  -0.0000000   0.3939595), wk =   0.0028490
        k(  181) = (  -0.0000000   0.0000000   0.4040610), wk =   0.0028490
        k(  182) = (  -0.0000000   0.0000000   0.4141625), wk =   0.0028490
        k(  183) = (   0.0000000  -0.0000000   0.4242641), wk =   0.0028490
        k(  184) = (   0.0000000  -0.0000000   0.4343656), wk =   0.0028490
        k(  185) = (   0.0000000  -0.0000000   0.4444671), wk =   0.0028490
        k(  186) = (  -0.0000000   0.0000000   0.4545686), wk =   0.0028490
        k(  187) = (  -0.0000000   0.0000000   0.4646702), wk =   0.0028490
        k(  188) = (   0.0000000  -0.0000000   0.4747717), wk =   0.0028490
        k(  189) = (   0.0000000  -0.0000000   0.4848732), wk =   0.0028490
        k(  190) = (  -0.0000000   0.0000000   0.4949747), wk =   0.0028490
        k(  191) = (   0.0000000  -0.0000000   0.5050763), wk =   0.0028490
        k(  192) = (   0.0000000  -0.0000000   0.5151778), wk =   0.0028490
        k(  193) = (  -0.0000000   0.0000000   0.5252793), wk =   0.0028490
        k(  194) = (   0.0000000  -0.0000000   0.5353808), wk =   0.0028490
        k(  195) = (   0.0000000  -0.0000000   0.5454824), wk =   0.0028490
        k(  196) = (  -0.0000000   0.0000000   0.5555839), wk =   0.0028490
        k(  197) = (   0.0000000  -0.0000000   0.5656854), wk =   0.0028490
        k(  198) = (  -0.0000000   0.0000000   0.5757870), wk =   0.0028490
        k(  199) = (   0.0000000  -0.0000000   0.5858885), wk =   0.0028490
        k(  200) = (  -0.0000000   0.0000000   0.5959900), wk =   0.0028490
        k(  201) = (  -0.0000000   0.0000000   0.6060915), wk =   0.0028490
        k(  202) = (   0.0000000  -0.0000000   0.6161931), wk =   0.0028490
        k(  203) = (  -0.0000000   0.0000000   0.6262946), wk =   0.0028490
        k(  204) = (   0.0000000  -0.0000000   0.6363961), wk =   0.0028490
        k(  205) = (  -0.0000000   0.0000000   0.6464976), wk =   0.0028490
        k(  206) = (  -0.0000000   0.0000000   0.6565992), wk =   0.0028490
        k(  207) = (   0.0000000  -0.0000000   0.6667007), wk =   0.0028490
        k(  208) = (  -0.0000000   0.0000000   0.6768022), wk =   0.0028490
        k(  209) = (   0.0000000  -0.0000000   0.6869037), wk =   0.0028490
        k(  210) = (   0.0000000  -0.0000000   0.6970053), wk =   0.0028490
        k(  211) = (   0.0000000   0.0000000   0.7071068), wk =   0.0028490
        k(  212) = (   0.0000000   0.0050508   0.7071068), wk =   0.0028490
        k(  213) = (   0.0000000   0.0101015   0.7071068), wk =   0.0028490
        k(  214) = (   0.0000000   0.0151523   0.7071068), wk =   0.0028490
        k(  215) = (   0.0000000   0.0202031   0.7071068), wk =   0.0028490
        k(  216) = (  -0.0000000   0.0252538   0.7071068), wk =   0.0028490
        k(  217) = (  -0.0000000   0.0303046   0.7071068), wk =   0.0028490
        k(  218) = (  -0.0000000   0.0353553   0.7071068), wk =   0.0028490
        k(  219) = (  -0.0000000   0.0404061   0.7071068), wk =   0.0028490
        k(  220) = (   0.0000000   0.0454569   0.7071068), wk =   0.0028490
        k(  221) = (   0.0000000   0.0505076   0.7071068), wk =   0.0028490
        k(  222) = (   0.0000000   0.0555584   0.7071068), wk =   0.0028490
        k(  223) = (   0.0000000   0.0606092   0.7071068), wk =   0.0028490
        k(  224) = (  -0.0000000   0.0656599   0.7071068), wk =   0.0028490
        k(  225) = (  -0.0000000   0.0707107   0.7071068), wk =   0.0028490
        k(  226) = (  -0.0000000   0.0757614   0.7071068), wk =   0.0028490
        k(  227) = (  -0.0000000   0.0808122   0.7071068), wk =   0.0028490
        k(  228) = (  -0.0000000   0.0858630   0.7071068), wk =   0.0028490
        k(  229) = (   0.0000000   0.0909137   0.7071068), wk =   0.0028490
        k(  230) = (   0.0000000   0.0959645   0.7071068), wk =   0.0028490
        k(  231) = (   0.0000000   0.1010153   0.7071068), wk =   0.0028490
        k(  232) = (   0.0000000   0.1060660   0.7071068), wk =   0.0028490
        k(  233) = (   0.0000000   0.1111168   0.7071068), wk =   0.0028490
        k(  234) = (  -0.0000000   0.1161675   0.7071068), wk =   0.0028490
        k(  235) = (  -0.0000000   0.1212183   0.7071068), wk =   0.0028490
        k(  236) = (  -0.0000000   0.1262691   0.7071068), wk =   0.0028490
        k(  237) = (   0.0000000   0.1313198   0.7071068), wk =   0.0028490
        k(  238) = (  -0.0000000   0.1363706   0.7071068), wk =   0.0028490
        k(  239) = (   0.0000000   0.1414214   0.7071068), wk =   0.0028490
        k(  240) = (   0.0000000   0.1464721   0.7071068), wk =   0.0028490
        k(  241) = (   0.0000000   0.1515229   0.7071068), wk =   0.0028490
        k(  242) = (  -0.0000000   0.1565736   0.7071068), wk =   0.0028490
        k(  243) = (  -0.0000000   0.1616244   0.7071068), wk =   0.0028490
        k(  244) = (  -0.0000000   0.1666752   0.7071068), wk =   0.0028490
        k(  245) = (  -0.0000000   0.1717259   0.7071068), wk =   0.0028490
        k(  246) = (   0.0000000   0.1767767   0.7071068), wk =   0.0028490
        k(  247) = (   0.0000000   0.1818275   0.7071068), wk =   0.0028490
        k(  248) = (   0.0000000   0.1868782   0.7071068), wk =   0.0028490
        k(  249) = (   0.0000000   0.1919290   0.7071068), wk =   0.0028490
        k(  250) = (   0.0000000   0.1969797   0.7071068), wk =   0.0028490
        k(  251) = (   0.0000000   0.2020305   0.7071068), wk =   0.0028490
        k(  252) = (  -0.0000000   0.2070813   0.7071068), wk =   0.0028490
        k(  253) = (  -0.0000000   0.2121320   0.7071068), wk =   0.0028490
        k(  254) = (  -0.0000000   0.2171828   0.7071068), wk =   0.0028490
        k(  255) = (  -0.0000000   0.2222336   0.7071068), wk =   0.0028490
        k(  256) = (   0.0000000   0.2272843   0.7071068), wk =   0.0028490
        k(  257) = (   0.0000000   0.2323351   0.7071068), wk =   0.0028490
        k(  258) = (   0.0000000   0.2373858   0.7071068), wk =   0.0028490
        k(  259) = (  -0.0000000   0.2424366   0.7071068), wk =   0.0028490
        k(  260) = (  -0.0000000   0.2474874   0.7071068), wk =   0.0028490
        k(  261) = (  -0.0000000   0.2525381   0.7071068), wk =   0.0028490
        k(  262) = (  -0.0000000   0.2575889   0.7071068), wk =   0.0028490
        k(  263) = (   0.0000000   0.2626397   0.7071068), wk =   0.0028490
        k(  264) = (  -0.0000000   0.2676904   0.7071068), wk =   0.0028490
        k(  265) = (  -0.0000000   0.2727412   0.7071068), wk =   0.0028490
        k(  266) = (   0.0000000   0.2777919   0.7071068), wk =   0.0028490
        k(  267) = (   0.0000000   0.2828427   0.7071068), wk =   0.0028490
        k(  268) = (   0.0000000   0.2878935   0.7071068), wk =   0.0028490
        k(  269) = (   0.0000000   0.2929442   0.7071068), wk =   0.0028490
        k(  270) = (  -0.0000000   0.2979950   0.7071068), wk =   0.0028490
        k(  271) = (  -0.0000000   0.3030458   0.7071068), wk =   0.0028490
        k(  272) = (  -0.0000000   0.3080965   0.7071068), wk =   0.0028490
        k(  273) = (   0.0000000   0.3131473   0.7071068), wk =   0.0028490
        k(  274) = (   0.0000000   0.3181981   0.7071068), wk =   0.0028490
        k(  275) = (   0.0000000   0.3232488   0.7071068), wk =   0.0028490
        k(  276) = (   0.0000000   0.3282996   0.7071068), wk =   0.0028490
        k(  277) = (  -0.0000000   0.3333503   0.7071068), wk =   0.0028490
        k(  278) = (  -0.0000000   0.3384011   0.7071068), wk =   0.0028490
        k(  279) = (  -0.0000000   0.3434519   0.7071068), wk =   0.0028490
        k(  280) = (  -0.0000000   0.3485026   0.7071068), wk =   0.0028490
        k(  281) = (   0.0000000   0.3535534   0.7071068), wk =   0.0028490
        k(  282) = (  -0.0000000   0.3560788   0.7045814), wk =   0.0028490
        k(  283) = (  -0.0000000   0.3586042   0.7020560), wk =   0.0028490
        k(  284) = (  -0.0000000   0.3611295   0.6995306), wk =   0.0028490
        k(  285) = (  -0.0000000   0.3636549   0.6970053), wk =   0.0028490
        k(  286) = (   0.0000000   0.3661803   0.6944799), wk =   0.0028490
        k(  287) = (   0.0000000   0.3687057   0.6919545), wk =   0.0028490
        k(  288) = (   0.0000000   0.3712311   0.6894291), wk =   0.0028490
        k(  289) = (   0.0000000   0.3737564   0.6869037), wk =   0.0028490
        k(  290) = (   0.0000000   0.3762818   0.6843783), wk =   0.0028490
        k(  291) = (   0.0000000   0.3788072   0.6818530), wk =   0.0028490
        k(  292) = (  -0.0000000   0.3813326   0.6793276), wk =   0.0028490
        k(  293) = (  -0.0000000   0.3838580   0.6768022), wk =   0.0028490
        k(  294) = (  -0.0000000   0.3863833   0.6742768), wk =   0.0028490
        k(  295) = (   0.0000000   0.3889087   0.6717514), wk =   0.0028490
        k(  296) = (   0.0000000   0.3914341   0.6692261), wk =   0.0028490
        k(  297) = (   0.0000000   0.3939595   0.6667007), wk =   0.0028490
        k(  298) = (   0.0000000   0.3964849   0.6641753), wk =   0.0028490
        k(  299) = (   0.0000000   0.3990103   0.6616499), wk =   0.0028490
        k(  300) = (   0.0000000   0.4015356   0.6591245), wk =   0.0028490
        k(  301) = (   0.0000000   0.4040610   0.6565992), wk =   0.0028490
        k(  302) = (   0.0000000   0.4065864   0.6540738), wk =   0.0028490
        k(  303) = (  -0.0000000   0.4091118   0.6515484), wk =   0.0028490
        k(  304) = (  -0.0000000   0.4116372   0.6490230), wk =   0.0028490
        k(  305) = (  -0.0000000   0.4141625   0.6464976), wk =   0.0028490
        k(  306) = (   0.0000000   0.4166879   0.6439722), wk =   0.0028490
        k(  307) = (   0.0000000   0.4192133   0.6414469), wk =   0.0028490
        k(  308) = (   0.0000000   0.4217387   0.6389215), wk =   0.0028490
        k(  309) = (   0.0000000   0.4242641   0.6363961), wk =   0.0028490
        k(  310) = (   0.0000000   0.4267895   0.6338707), wk =   0.0028490
        k(  311) = (   0.0000000   0.4293148   0.6313453), wk =   0.0028490
        k(  312) = (  -0.0000000   0.4318402   0.6288200), wk =   0.0028490
        k(  313) = (  -0.0000000   0.4343656   0.6262946), wk =   0.0028490
        k(  314) = (  -0.0000000   0.4368910   0.6237692), wk =   0.0028490
        k(  315) = (  -0.0000000   0.4394164   0.6212438), wk =   0.0028490
        k(  316) = (  -0.0000000   0.4419417   0.6187184), wk =   0.0028490
        k(  317) = (   0.0000000   0.4444671   0.6161931), wk =   0.0028490
        k(  318) = (   0.0000000   0.4469925   0.6136677), wk =   0.0028490
        k(  319) = (   0.0000000   0.4495179   0.6111423), wk =   0.0028490
        k(  320) = (   0.0000000   0.4520433   0.6086169), wk =   0.0028490
        k(  321) = (   0.0000000   0.4545686   0.6060915), wk =   0.0028490
        k(  322) = (  -0.0000000   0.4570940   0.6035661), wk =   0.0028490
        k(  323) = (  -0.0000000   0.4596194   0.6010408), wk =   0.0028490
        k(  324) = (  -0.0000000   0.4621448   0.5985154), wk =   0.0028490
        k(  325) = (  -0.0000000   0.4646702   0.5959900), wk =   0.0028490
        k(  326) = (  -0.0000000   0.4671956   0.5934646), wk =   0.0028490
        k(  327) = (   0.0000000   0.4697209   0.5909392), wk =   0.0028490
        k(  328) = (   0.0000000   0.4722463   0.5884139), wk =   0.0028490
        k(  329) = (   0.0000000   0.4747717   0.5858885), wk =   0.0028490
        k(  330) = (  -0.0000000   0.4772971   0.5833631), wk =   0.0028490
        k(  331) = (  -0.0000000   0.4798225   0.5808377), wk =   0.0028490
        k(  332) = (  -0.0000000   0.4823478   0.5783123), wk =   0.0028490
        k(  333) = (  -0.0000000   0.4848732   0.5757870), wk =   0.0028490
        k(  334) = (  -0.0000000   0.4873986   0.5732616), wk =   0.0028490
        k(  335) = (  -0.0000000   0.4899240   0.5707362), wk =   0.0028490
        k(  336) = (  -0.0000000   0.4924494   0.5682108), wk =   0.0028490
        k(  337) = (  -0.0000000   0.4949747   0.5656854), wk =   0.0028490
        k(  338) = (   0.0000000   0.4975001   0.5631600), wk =   0.0028490
        k(  339) = (   0.0000000   0.5000255   0.5606347), wk =   0.0028490
        k(  340) = (   0.0000000   0.5025509   0.5581093), wk =   0.0028490
        k(  341) = (  -0.0000000   0.5050763   0.5555839), wk =   0.0028490
        k(  342) = (  -0.0000000   0.5076017   0.5530585), wk =   0.0028490
        k(  343) = (  -0.0000000   0.5101270   0.5505331), wk =   0.0028490
        k(  344) = (  -0.0000000   0.5126524   0.5480078), wk =   0.0028490
        k(  345) = (  -0.0000000   0.5151778   0.5454824), wk =   0.0028490
        k(  346) = (  -0.0000000   0.5177032   0.5429570), wk =   0.0028490
        k(  347) = (   0.0000000   0.5202286   0.5404316), wk =   0.0028490
        k(  348) = (   0.0000000   0.5227539   0.5379062), wk =   0.0028490
        k(  349) = (   0.0000000   0.5252793   0.5353808), wk =   0.0028490
        k(  350) = (   0.0000000   0.5278047   0.5328555), wk =   0.0028490
        k(  351) = (   0.0000000   0.5303301   0.5303301), wk =   0.0028490

                       cryst. coord.
        k(    1) = (   0.7500000   0.5000000   0.2500000), wk =   0.0028490
        k(    2) = (   0.7464286   0.4928571   0.2464286), wk =   0.0028490
        k(    3) = (   0.7428571   0.4857143   0.2428571), wk =   0.0028490
        k(    4) = (   0.7392857   0.4785714   0.2392857), wk =   0.0028490
        k(    5) = (   0.7357143   0.4714286   0.2357143), wk =   0.0028490
        k(    6) = (   0.7321429   0.4642857   0.2321429), wk =   0.0028490
        k(    7) = (   0.7285714   0.4571429   0.2285714), wk =   0.0028490
        k(    8) = (   0.7250000   0.4500000   0.2250000), wk =   0.0028490
        k(    9) = (   0.7214286   0.4428571   0.2214286), wk =   0.0028490
        k(   10) = (   0.7178571   0.4357143   0.2178571), wk =   0.0028490
        k(   11) = (   0.7142857   0.4285714   0.2142857), wk =   0.0028490
        k(   12) = (   0.7107143   0.4214286   0.2107143), wk =   0.0028490
        k(   13) = (   0.7071429   0.4142857   0.2071429), wk =   0.0028490
        k(   14) = (   0.7035714   0.4071429   0.2035714), wk =   0.0028490
        k(   15) = (   0.7000000   0.4000000   0.2000000), wk =   0.0028490
        k(   16) = (   0.6964286   0.3928571   0.1964286), wk =   0.0028490
        k(   17) = (   0.6928571   0.3857143   0.1928571), wk =   0.0028490
        k(   18) = (   0.6892857   0.3785714   0.1892857), wk =   0.0028490
        k(   19) = (   0.6857143   0.3714286   0.1857143), wk =   0.0028490
        k(   20) = (   0.6821429   0.3642857   0.1821429), wk =   0.0028490
        k(   21) = (   0.6785714   0.3571429   0.1785714), wk =   0.0028490
        k(   22) = (   0.6750000   0.3500000   0.1750000), wk =   0.0028490
        k(   23) = (   0.6714286   0.3428571   0.1714286), wk =   0.0028490
        k(   24) = (   0.6678571   0.3357143   0.1678571), wk =   0.0028490
        k(   25) = (   0.6642857   0.3285714   0.1642857), wk =   0.0028490
        k(   26) = (   0.6607143   0.3214286   0.1607143), wk =   0.0028490
        k(   27) = (   0.6571429   0.3142857   0.1571429), wk =   0.0028490
        k(   28) = (   0.6535714   0.3071429   0.1535714), wk =   0.0028490
        k(   29) = (   0.6500000   0.3000000   0.1500000), wk =   0.0028490
        k(   30) = (   0.6464286   0.2928571   0.1464286), wk =   0.0028490
        k(   31) = (   0.6428571   0.2857143   0.1428571), wk =   0.0028490
        k(   32) = (   0.6392857   0.2785714   0.1392857), wk =   0.0028490
        k(   33) = (   0.6357143   0.2714286   0.1357143), wk =   0.0028490
        k(   34) = (   0.6321429   0.2642857   0.1321429), wk =   0.0028490
        k(   35) = (   0.6285714   0.2571429   0.1285714), wk =   0.0028490
        k(   36) = (   0.6250000   0.2500000   0.1250000), wk =   0.0028490
        k(   37) = (   0.6214286   0.2428571   0.1214286), wk =   0.0028490
        k(   38) = (   0.6178571   0.2357143   0.1178571), wk =   0.0028490
        k(   39) = (   0.6142857   0.2285714   0.1142857), wk =   0.0028490
        k(   40) = (   0.6107143   0.2214286   0.1107143), wk =   0.0028490
        k(   41) = (   0.6071429   0.2142857   0.1071429), wk =   0.0028490
        k(   42) = (   0.6035714   0.2071429   0.1035714), wk =   0.0028490
        k(   43) = (   0.6000000   0.2000000   0.1000000), wk =   0.0028490
        k(   44) = (   0.5964286   0.1928571   0.0964286), wk =   0.0028490
        k(   45) = (   0.5928571   0.1857143   0.0928571), wk =   0.0028490
        k(   46) = (   0.5892857   0.1785714   0.0892857), wk =   0.0028490
        k(   47) = (   0.5857143   0.1714286   0.0857143), wk =   0.0028490
        k(   48) = (   0.5821429   0.1642857   0.0821429), wk =   0.0028490
        k(   49) = (   0.5785714   0.1571429   0.0785714), wk =   0.0028490
        k(   50) = (   0.5750000   0.1500000   0.0750000), wk =   0.0028490
        k(   51) = (   0.5714286   0.1428571   0.0714286), wk =   0.0028490
        k(   52) = (   0.5678571   0.1357143   0.0678571), wk =   0.0028490
        k(   53) = (   0.5642857   0.1285714   0.0642857), wk =   0.0028490
        k(   54) = (   0.5607143   0.1214286   0.0607143), wk =   0.0028490
        k(   55) = (   0.5571429   0.1142857   0.0571429), wk =   0.0028490
        k(   56) = (   0.5535714   0.1071429   0.0535714), wk =   0.0028490
        k(   57) = (   0.5500000   0.1000000   0.0500000), wk =   0.0028490
        k(   58) = (   0.5464286   0.0928571   0.0464286), wk =   0.0028490
        k(   59) = (   0.5428571   0.0857143   0.0428571), wk =   0.0028490
        k(   60) = (   0.5392857   0.0785714   0.0392857), wk =   0.0028490
        k(   61) = (   0.5357143   0.0714286   0.0357143), wk =   0.0028490
        k(   62) = (   0.5321429   0.0642857   0.0321429), wk =   0.0028490
        k(   63) = (   0.5285714   0.0571429   0.0285714), wk =   0.0028490
        k(   64) = (   0.5250000   0.0500000   0.0250000), wk =   0.0028490
        k(   65) = (   0.5214286   0.0428571   0.0214286), wk =   0.0028490
        k(   66) = (   0.5178571   0.0357143   0.0178571), wk =   0.0028490
        k(   67) = (   0.5142857   0.0285714   0.0142857), wk =   0.0028490
        k(   68) = (   0.5107143   0.0214286   0.0107143), wk =   0.0028490
        k(   69) = (   0.5071429   0.0142857   0.0071429), wk =   0.0028490
        k(   70) = (   0.5035714   0.0071429   0.0035714), wk =   0.0028490
        k(   71) = (   0.5000000  -0.0000000   0.0000000), wk =   0.0028490
        k(   72) = (   0.4928571   0.0000000  -0.0000000), wk =   0.0028490
        k(   73) = (   0.4857143   0.0000000  -0.0000000), wk =   0.0028490
        k(   74) = (   0.4785714  -0.0000000   0.0000000), wk =   0.0028490
        k(   75) = (   0.4714286   0.0000000  -0.0000000), wk =   0.0028490
        k(   76) = (   0.4642857  -0.0000000   0.0000000), wk =   0.0028490
        k(   77) = (   0.4571429   0.0000000  -0.0000000), wk =   0.0028490
        k(   78) = (   0.4500000   0.0000000  -0.0000000), wk =   0.0028490
        k(   79) = (   0.4428571   0.0000000  -0.0000000), wk =   0.0028490
        k(   80) = (   0.4357143   0.0000000  -0.0000000), wk =   0.0028490
        k(   81) = (   0.4285714   0.0000000  -0.0000000), wk =   0.0028490
        k(   82) = (   0.4214286   0.0000000  -0.0000000), wk =   0.0028490
        k(   83) = (   0.4142857  -0.0000000   0.0000000), wk =   0.0028490
        k(   84) = (   0.4071429  -0.0000000   0.0000000), wk =   0.0028490
        k(   85) = (   0.4000000   0.0000000  -0.0000000), wk =   0.0028490
        k(   86) = (   0.3928571  -0.0000000   0.0000000), wk =   0.0028490
        k(   87) = (   0.3857143   0.0000000  -0.0000000), wk =   0.0028490
        k(   88) = (   0.3785714   0.0000000  -0.0000000), wk =   0.0028490
        k(   89) = (   0.3714286  -0.0000000   0.0000000), wk =   0.0028490
        k(   90) = (   0.3642857   0.0000000  -0.0000000), wk =   0.0028490
        k(   91) = (   0.3571429  -0.0000000   0.0000000), wk =   0.0028490
        k(   92) = (   0.3500000  -0.0000000   0.0000000), wk =   0.0028490
        k(   93) = (   0.3428571   0.0000000  -0.0000000), wk =   0.0028490
        k(   94) = (   0.3357143  -0.0000000   0.0000000), wk =   0.0028490
        k(   95) = (   0.3285714  -0.0000000   0.0000000), wk =   0.0028490
        k(   96) = (   0.3214286  -0.0000000   0.0000000), wk =   0.0028490
        k(   97) = (   0.3142857  -0.0000000   0.0000000), wk =   0.0028490
        k(   98) = (   0.3071429  -0.0000000   0.0000000), wk =   0.0028490
        k(   99) = (   0.3000000  -0.0000000   0.0000000), wk =   0.0028490
        k(  100) = (   0.2928571  -0.0000000   0.0000000), wk =   0.0028490
        k(  101) = (   0.2857143  -0.0000000   0.0000000), wk =   0.0028490
        k(  102) = (   0.2785714   0.0000000  -0.0000000), wk =   0.0028490
        k(  103) = (   0.2714286  -0.0000000   0.0000000), wk =   0.0028490
        k(  104) = (   0.2642857  -0.0000000   0.0000000), wk =   0.0028490
        k(  105) = (   0.2571429  -0.0000000   0.0000000), wk =   0.0028490
        k(  106) = (   0.2500000  -0.0000000   0.0000000), wk =   0.0028490
        k(  107) = (   0.2428571   0.0000000  -0.0000000), wk =   0.0028490
        k(  108) = (   0.2357143   0.0000000  -0.0000000), wk =   0.0028490
        k(  109) = (   0.2285714  -0.0000000   0.0000000), wk =   0.0028490
        k(  110) = (   0.2214286   0.0000000  -0.0000000), wk =   0.0028490
        k(  111) = (   0.2142857   0.0000000  -0.0000000), wk =   0.0028490
        k(  112) = (   0.2071429  -0.0000000   0.0000000), wk =   0.0028490
        k(  113) = (   0.2000000   0.0000000  -0.0000000), wk =   0.0028490
        k(  114) = (   0.1928571  -0.0000000   0.0000000), wk =   0.0028490
        k(  115) = (   0.1857143  -0.0000000   0.0000000), wk =   0.0028490
        k(  116) = (   0.1785714   0.0000000  -0.0000000), wk =   0.0028490
        k(  117) = (   0.1714286   0.0000000  -0.0000000), wk =   0.0028490
        k(  118) = (   0.1642857   0.0000000  -0.0000000), wk =   0.0028490
        k(  119) = (   0.1571429  -0.0000000   0.0000000), wk =   0.0028490
        k(  120) = (   0.1500000  -0.0000000   0.0000000), wk =   0.0028490
        k(  121) = (   0.1428571  -0.0000000   0.0000000), wk =   0.0028490
        k(  122) = (   0.1357143  -0.0000000   0.0000000), wk =   0.0028490
        k(  123) = (   0.1285714  -0.0000000   0.0000000), wk =   0.0028490
        k(  124) = (   0.1214286   0.0000000  -0.0000000), wk =   0.0028490
        k(  125) = (   0.1142857   0.0000000  -0.0000000), wk =   0.0028490
        k(  126) = (   0.1071429   0.0000000  -0.0000000), wk =   0.0028490
        k(  127) = (   0.1000000  -0.0000000   0.0000000), wk =   0.0028490
        k(  128) = (   0.0928571  -0.0000000   0.0000000), wk =   0.0028490
        k(  129) = (   0.0857143  -0.0000000   0.0000000), wk =   0.0028490
        k(  130) = (   0.0785714  -0.0000000   0.0000000), wk =   0.0028490
        k(  131) = (   0.0714286  -0.0000000   0.0000000), wk =   0.0028490
        k(  132) = (   0.0642857  -0.0000000   0.0000000), wk =   0.0028490
        k(  133) = (   0.0571429   0.0000000  -0.0000000), wk =   0.0028490
        k(  134) = (   0.0500000  -0.0000000   0.0000000), wk =   0.0028490
        k(  135) = (   0.0428571  -0.0000000   0.0000000), wk =   0.0028490
        k(  136) = (   0.0357143   0.0000000  -0.0000000), wk =   0.0028490
        k(  137) = (   0.0285714   0.0000000  -0.0000000), wk =   0.0028490
        k(  138) = (   0.0214286   0.0000000  -0.0000000), wk =   0.0028490
        k(  139) = (   0.0142857   0.0000000  -0.0000000), wk =   0.0028490
        k(  140) = (   0.0071429  -0.0000000   0.0000000), wk =   0.0028490
        k(  141) = (   0.0000000   0.0000000   0.0000000), wk =   0.0028490
        k(  142) = (   0.0071429   0.0071429   0.0000000), wk =   0.0028490
        k(  143) = (   0.0142857   0.0142857   0.0000000), wk =   0.0028490
        k(  144) = (   0.0214286   0.0214286  -0.0000000), wk =   0.0028490
        k(  145) = (   0.0285714   0.0285714   0.0000000), wk =   0.0028490
        k(  146) = (   0.0357143   0.0357143  -0.0000000), wk =   0.0028490
        k(  147) = (   0.0428571   0.0428571  -0.0000000), wk =   0.0028490
        k(  148) = (   0.0500000   0.0500000   0.0000000), wk =   0.0028490
        k(  149) = (   0.0571429   0.0571429   0.0000000), wk =   0.0028490
        k(  150) = (   0.0642857   0.0642857   0.0000000), wk =   0.0028490
        k(  151) = (   0.0714286   0.0714286  -0.0000000), wk =   0.0028490
        k(  152) = (   0.0785714   0.0785714   0.0000000), wk =   0.0028490
        k(  153) = (   0.0857143   0.0857143  -0.0000000), wk =   0.0028490
        k(  154) = (   0.0928571   0.0928571  -0.0000000), wk =   0.0028490
        k(  155) = (   0.1000000   0.1000000   0.0000000), wk =   0.0028490
        k(  156) = (   0.1071429   0.1071429  -0.0000000), wk =   0.0028490
        k(  157) = (   0.1142857   0.1142857   0.0000000), wk =   0.0028490
        k(  158) = (   0.1214286   0.1214286  -0.0000000), wk =   0.0028490
        k(  159) = (   0.1285714   0.1285714   0.0000000), wk =   0.0028490
        k(  160) = (   0.1357143   0.1357143   0.0000000), wk =   0.0028490
        k(  161) = (   0.1428571   0.1428571  -0.0000000), wk =   0.0028490
        k(  162) = (   0.1500000   0.1500000   0.0000000), wk =   0.0028490
        k(  163) = (   0.1571429   0.1571429   0.0000000), wk =   0.0028490
        k(  164) = (   0.1642857   0.1642857   0.0000000), wk =   0.0028490
        k(  165) = (   0.1714286   0.1714286  -0.0000000), wk =   0.0028490
        k(  166) = (   0.1785714   0.1785714   0.0000000), wk =   0.0028490
        k(  167) = (   0.1857143   0.1857143  -0.0000000), wk =   0.0028490
        k(  168) = (   0.1928571   0.1928571   0.0000000), wk =   0.0028490
        k(  169) = (   0.2000000   0.2000000   0.0000000), wk =   0.0028490
        k(  170) = (   0.2071429   0.2071429   0.0000000), wk =   0.0028490
        k(  171) = (   0.2142857   0.2142857  -0.0000000), wk =   0.0028490
        k(  172) = (   0.2214286   0.2214286   0.0000000), wk =   0.0028490
        k(  173) = (   0.2285714   0.2285714   0.0000000), wk =   0.0028490
        k(  174) = (   0.2357143   0.2357143  -0.0000000), wk =   0.0028490
        k(  175) = (   0.2428571   0.2428571  -0.0000000), wk =   0.0028490
        k(  176) = (   0.2500000   0.2500000   0.0000000), wk =   0.0028490
        k(  177) = (   0.2571429   0.2571429   0.0000000), wk =   0.0028490
        k(  178) = (   0.2642857   0.2642857   0.0000000), wk =   0.0028490
        k(  179) = (   0.2714286   0.2714286   0.0000000), wk =   0.0028490
        k(  180) = (   0.2785714   0.2785714  -0.0000000), wk =   0.0028490
        k(  181) = (   0.2857143   0.2857143  -0.0000000), wk =   0.0028490
        k(  182) = (   0.2928571   0.2928571  -0.0000000), wk =   0.0028490
        k(  183) = (   0.3000000   0.3000000   0.0000000), wk =   0.0028490
        k(  184) = (   0.3071429   0.3071429  -0.0000000), wk =   0.0028490
        k(  185) = (   0.3142857   0.3142857   0.0000000), wk =   0.0028490
        k(  186) = (   0.3214286   0.3214286  -0.0000000), wk =   0.0028490
        k(  187) = (   0.3285714   0.3285714   0.0000000), wk =   0.0028490
        k(  188) = (   0.3357143   0.3357143   0.0000000), wk =   0.0028490
        k(  189) = (   0.3428571   0.3428571  -0.0000000), wk =   0.0028490
        k(  190) = (   0.3500000   0.3500000   0.0000000), wk =   0.0028490
        k(  191) = (   0.3571429   0.3571429   0.0000000), wk =   0.0028490
        k(  192) = (   0.3642857   0.3642857   0.0000000), wk =   0.0028490
        k(  193) = (   0.3714286   0.3714286  -0.0000000), wk =   0.0028490
        k(  194) = (   0.3785714   0.3785714   0.0000000), wk =   0.0028490
        k(  195) = (   0.3857143   0.3857143   0.0000000), wk =   0.0028490
        k(  196) = (   0.3928571   0.3928571  -0.0000000), wk =   0.0028490
        k(  197) = (   0.4000000   0.4000000   0.0000000), wk =   0.0028490
        k(  198) = (   0.4071429   0.4071429   0.0000000), wk =   0.0028490
        k(  199) = (   0.4142857   0.4142857   0.0000000), wk =   0.0028490
        k(  200) = (   0.4214286   0.4214286   0.0000000), wk =   0.0028490
        k(  201) = (   0.4285714   0.4285714  -0.0000000), wk =   0.0028490
        k(  202) = (   0.4357143   0.4357143  -0.0000000), wk =   0.0028490
        k(  203) = (   0.4428571   0.4428571   0.0000000), wk =   0.0028490
        k(  204) = (   0.4500000   0.4500000  -0.0000000), wk =   0.0028490
        k(  205) = (   0.4571429   0.4571429   0.0000000), wk =   0.0028490
        k(  206) = (   0.4642857   0.4642857  -0.0000000), wk =   0.0028490
        k(  207) = (   0.4714286   0.4714286  -0.0000000), wk =   0.0028490
        k(  208) = (   0.4785714   0.4785714   0.0000000), wk =   0.0028490
        k(  209) = (   0.4857143   0.4857143  -0.0000000), wk =   0.0028490
        k(  210) = (   0.4928571   0.4928571   0.0000000), wk =   0.0028490
        k(  211) = (   0.5000000   0.5000000   0.0000000), wk =   0.0028490
        k(  212) = (   0.5035714   0.5000000   0.0035714), wk =   0.0028490
        k(  213) = (   0.5071429   0.5000000   0.0071429), wk =   0.0028490
        k(  214) = (   0.5107143   0.5000000   0.0107143), wk =   0.0028490
        k(  215) = (   0.5142857   0.5000000   0.0142857), wk =   0.0028490
        k(  216) = (   0.5178571   0.5000000   0.0178571), wk =   0.0028490
        k(  217) = (   0.5214286   0.5000000   0.0214286), wk =   0.0028490
        k(  218) = (   0.5250000   0.5000000   0.0250000), wk =   0.0028490
        k(  219) = (   0.5285714   0.5000000   0.0285714), wk =   0.0028490
        k(  220) = (   0.5321429   0.5000000   0.0321429), wk =   0.0028490
        k(  221) = (   0.5357143   0.5000000   0.0357143), wk =   0.0028490
        k(  222) = (   0.5392857   0.5000000   0.0392857), wk =   0.0028490
        k(  223) = (   0.5428571   0.5000000   0.0428571), wk =   0.0028490
        k(  224) = (   0.5464286   0.5000000   0.0464286), wk =   0.0028490
        k(  225) = (   0.5500000   0.5000000   0.0500000), wk =   0.0028490
        k(  226) = (   0.5535714   0.5000000   0.0535714), wk =   0.0028490
        k(  227) = (   0.5571429   0.5000000   0.0571429), wk =   0.0028490
        k(  228) = (   0.5607143   0.5000000   0.0607143), wk =   0.0028490
        k(  229) = (   0.5642857   0.5000000   0.0642857), wk =   0.0028490
        k(  230) = (   0.5678571   0.5000000   0.0678571), wk =   0.0028490
        k(  231) = (   0.5714286   0.5000000   0.0714286), wk =   0.0028490
        k(  232) = (   0.5750000   0.5000000   0.0750000), wk =   0.0028490
        k(  233) = (   0.5785714   0.5000000   0.0785714), wk =   0.0028490
        k(  234) = (   0.5821429   0.5000000   0.0821429), wk =   0.0028490
        k(  235) = (   0.5857143   0.5000000   0.0857143), wk =   0.0028490
        k(  236) = (   0.5892857   0.5000000   0.0892857), wk =   0.0028490
        k(  237) = (   0.5928571   0.5000000   0.0928571), wk =   0.0028490
        k(  238) = (   0.5964286   0.5000000   0.0964286), wk =   0.0028490
        k(  239) = (   0.6000000   0.5000000   0.1000000), wk =   0.0028490
        k(  240) = (   0.6035714   0.5000000   0.1035714), wk =   0.0028490
        k(  241) = (   0.6071429   0.5000000   0.1071429), wk =   0.0028490
        k(  242) = (   0.6107143   0.5000000   0.1107143), wk =   0.0028490
        k(  243) = (   0.6142857   0.5000000   0.1142857), wk =   0.0028490
        k(  244) = (   0.6178571   0.5000000   0.1178571), wk =   0.0028490
        k(  245) = (   0.6214286   0.5000000   0.1214286), wk =   0.0028490
        k(  246) = (   0.6250000   0.5000000   0.1250000), wk =   0.0028490
        k(  247) = (   0.6285714   0.5000000   0.1285714), wk =   0.0028490
        k(  248) = (   0.6321429   0.5000000   0.1321429), wk =   0.0028490
        k(  249) = (   0.6357143   0.5000000   0.1357143), wk =   0.0028490
        k(  250) = (   0.6392857   0.5000000   0.1392857), wk =   0.0028490
        k(  251) = (   0.6428571   0.5000000   0.1428571), wk =   0.0028490
        k(  252) = (   0.6464286   0.5000000   0.1464286), wk =   0.0028490
        k(  253) = (   0.6500000   0.5000000   0.1500000), wk =   0.0028490
        k(  254) = (   0.6535714   0.5000000   0.1535714), wk =   0.0028490
        k(  255) = (   0.6571429   0.5000000   0.1571429), wk =   0.0028490
        k(  256) = (   0.6607143   0.5000000   0.1607143), wk =   0.0028490
        k(  257) = (   0.6642857   0.5000000   0.1642857), wk =   0.0028490
        k(  258) = (   0.6678571   0.5000000   0.1678571), wk =   0.0028490
        k(  259) = (   0.6714286   0.5000000   0.1714286), wk =   0.0028490
        k(  260) = (   0.6750000   0.5000000   0.1750000), wk =   0.0028490
        k(  261) = (   0.6785714   0.5000000   0.1785714), wk =   0.0028490
        k(  262) = (   0.6821429   0.5000000   0.1821429), wk =   0.0028490
        k(  263) = (   0.6857143   0.5000000   0.1857143), wk =   0.0028490
        k(  264) = (   0.6892857   0.5000000   0.1892857), wk =   0.0028490
        k(  265) = (   0.6928571   0.5000000   0.1928571), wk =   0.0028490
        k(  266) = (   0.6964286   0.5000000   0.1964286), wk =   0.0028490
        k(  267) = (   0.7000000   0.5000000   0.2000000), wk =   0.0028490
        k(  268) = (   0.7035714   0.5000000   0.2035714), wk =   0.0028490
        k(  269) = (   0.7071429   0.5000000   0.2071429), wk =   0.0028490
        k(  270) = (   0.7107143   0.5000000   0.2107143), wk =   0.0028490
        k(  271) = (   0.7142857   0.5000000   0.2142857), wk =   0.0028490
        k(  272) = (   0.7178571   0.5000000   0.2178571), wk =   0.0028490
        k(  273) = (   0.7214286   0.5000000   0.2214286), wk =   0.0028490
        k(  274) = (   0.7250000   0.5000000   0.2250000), wk =   0.0028490
        k(  275) = (   0.7285714   0.5000000   0.2285714), wk =   0.0028490
        k(  276) = (   0.7321429   0.5000000   0.2321429), wk =   0.0028490
        k(  277) = (   0.7357143   0.5000000   0.2357143), wk =   0.0028490
        k(  278) = (   0.7392857   0.5000000   0.2392857), wk =   0.0028490
        k(  279) = (   0.7428571   0.5000000   0.2428571), wk =   0.0028490
        k(  280) = (   0.7464286   0.5000000   0.2464286), wk =   0.0028490
        k(  281) = (   0.7500000   0.5000000   0.2500000), wk =   0.0028490
        k(  282) = (   0.7500000   0.4982143   0.2517857), wk =   0.0028490
        k(  283) = (   0.7500000   0.4964286   0.2535714), wk =   0.0028490
        k(  284) = (   0.7500000   0.4946429   0.2553571), wk =   0.0028490
        k(  285) = (   0.7500000   0.4928571   0.2571429), wk =   0.0028490
        k(  286) = (   0.7500000   0.4910714   0.2589286), wk =   0.0028490
        k(  287) = (   0.7500000   0.4892857   0.2607143), wk =   0.0028490
        k(  288) = (   0.7500000   0.4875000   0.2625000), wk =   0.0028490
        k(  289) = (   0.7500000   0.4857143   0.2642857), wk =   0.0028490
        k(  290) = (   0.7500000   0.4839286   0.2660714), wk =   0.0028490
        k(  291) = (   0.7500000   0.4821429   0.2678571), wk =   0.0028490
        k(  292) = (   0.7500000   0.4803571   0.2696429), wk =   0.0028490
        k(  293) = (   0.7500000   0.4785714   0.2714286), wk =   0.0028490
        k(  294) = (   0.7500000   0.4767857   0.2732143), wk =   0.0028490
        k(  295) = (   0.7500000   0.4750000   0.2750000), wk =   0.0028490
        k(  296) = (   0.7500000   0.4732143   0.2767857), wk =   0.0028490
        k(  297) = (   0.7500000   0.4714286   0.2785714), wk =   0.0028490
        k(  298) = (   0.7500000   0.4696429   0.2803571), wk =   0.0028490
        k(  299) = (   0.7500000   0.4678571   0.2821429), wk =   0.0028490
        k(  300) = (   0.7500000   0.4660714   0.2839286), wk =   0.0028490
        k(  301) = (   0.7500000   0.4642857   0.2857143), wk =   0.0028490
        k(  302) = (   0.7500000   0.4625000   0.2875000), wk =   0.0028490
        k(  303) = (   0.7500000   0.4607143   0.2892857), wk =   0.0028490
        k(  304) = (   0.7500000   0.4589286   0.2910714), wk =   0.0028490
        k(  305) = (   0.7500000   0.4571429   0.2928571), wk =   0.0028490
        k(  306) = (   0.7500000   0.4553571   0.2946429), wk =   0.0028490
        k(  307) = (   0.7500000   0.4535714   0.2964286), wk =   0.0028490
        k(  308) = (   0.7500000   0.4517857   0.2982143), wk =   0.0028490
        k(  309) = (   0.7500000   0.4500000   0.3000000), wk =   0.0028490
        k(  310) = (   0.7500000   0.4482143   0.3017857), wk =   0.0028490
        k(  311) = (   0.7500000   0.4464286   0.3035714), wk =   0.0028490
        k(  312) = (   0.7500000   0.4446429   0.3053571), wk =   0.0028490
        k(  313) = (   0.7500000   0.4428571   0.3071429), wk =   0.0028490
        k(  314) = (   0.7500000   0.4410714   0.3089286), wk =   0.0028490
        k(  315) = (   0.7500000   0.4392857   0.3107143), wk =   0.0028490
        k(  316) = (   0.7500000   0.4375000   0.3125000), wk =   0.0028490
        k(  317) = (   0.7500000   0.4357143   0.3142857), wk =   0.0028490
        k(  318) = (   0.7500000   0.4339286   0.3160714), wk =   0.0028490
        k(  319) = (   0.7500000   0.4321429   0.3178571), wk =   0.0028490
        k(  320) = (   0.7500000   0.4303571   0.3196429), wk =   0.0028490
        k(  321) = (   0.7500000   0.4285714   0.3214286), wk =   0.0028490
        k(  322) = (   0.7500000   0.4267857   0.3232143), wk =   0.0028490
        k(  323) = (   0.7500000   0.4250000   0.3250000), wk =   0.0028490
        k(  324) = (   0.7500000   0.4232143   0.3267857), wk =   0.0028490
        k(  325) = (   0.7500000   0.4214286   0.3285714), wk =   0.0028490
        k(  326) = (   0.7500000   0.4196429   0.3303571), wk =   0.0028490
        k(  327) = (   0.7500000   0.4178571   0.3321429), wk =   0.0028490
[...]
    10.0056  10.0056  10.0056  10.0056  11.7063  11.7063  11.7063  11.7063

          k = 0.0000 0.3131 0.7071 (  2154 PWs)   bands (ev):

    -1.4607  -1.4607  -1.4607  -1.4607   2.3739   2.3739   2.3739   2.3739
    10.0779  10.0779  10.0779  10.0779  11.6265  11.6265  11.6265  11.6265

          k = 0.0000 0.3182 0.7071 (  2150 PWs)   bands (ev):

    -1.4594  -1.4594  -1.4594  -1.4594   2.3679   2.3679   2.3679   2.3679
    10.1486  10.1486  10.1486  10.1486  11.5492  11.5492  11.5492  11.5492

          k = 0.0000 0.3232 0.7071 (  2146 PWs)   bands (ev):

    -1.4583  -1.4583  -1.4583  -1.4583   2.3627   2.3627   2.3627   2.3627
    10.2170  10.2170  10.2170  10.2170  11.4751  11.4751  11.4751  11.4751

          k = 0.0000 0.3283 0.7071 (  2148 PWs)   bands (ev):

    -1.4573  -1.4573  -1.4573  -1.4573   2.3583   2.3583   2.3583   2.3583
    10.2820  10.2820  10.2820  10.2820  11.4053  11.4053  11.4053  11.4053

          k =-0.0000 0.3334 0.7071 (  2148 PWs)   bands (ev):

    -1.4565  -1.4565  -1.4565  -1.4565   2.3547   2.3547   2.3547   2.3547
    10.3418  10.3418  10.3418  10.3418  11.3415  11.3415  11.3415  11.3415

          k =-0.0000 0.3384 0.7071 (  2148 PWs)   bands (ev):

    -1.4558  -1.4558  -1.4558  -1.4558   2.3519   2.3519   2.3519   2.3519
    10.3943  10.3943  10.3943  10.3943  11.2859  11.2859  11.2859  11.2859

          k =-0.0000 0.3435 0.7071 (  2148 PWs)   bands (ev):

    -1.4554  -1.4554  -1.4554  -1.4554   2.3499   2.3499   2.3499   2.3499
    10.4363  10.4363  10.4363  10.4363  11.2418  11.2418  11.2418  11.2418

          k =-0.0000 0.3485 0.7071 (  2148 PWs)   bands (ev):

    -1.4551  -1.4551  -1.4551  -1.4551   2.3487   2.3487   2.3487   2.3487
    10.4638  10.4638  10.4638  10.4638  11.2129  11.2129  11.2129  11.2129

          k = 0.0000 0.3536 0.7071 (  2148 PWs)   bands (ev):

    -1.4550  -1.4550  -1.4550  -1.4550   2.3483   2.3483   2.3483   2.3483
    10.4735  10.4735  10.4735  10.4735  11.2028  11.2028  11.2028  11.2028

          k =-0.0000 0.3561 0.7046 (  2148 PWs)   bands (ev):

    -1.4713  -1.4713  -1.4388  -1.4388   2.3360   2.3360   2.3610   2.3610
    10.4564  10.4564  10.4850  10.4850  11.1940  11.1940  11.2176  11.2176

          k =-0.0000 0.3586 0.7021 (  2148 PWs)   bands (ev):

    -1.4874  -1.4874  -1.4229  -1.4229   2.3239   2.3239   2.3743   2.3743
    10.4303  10.4303  10.4949  10.4949  11.1949  11.1949  11.2343  11.2343

          k =-0.0000 0.3611 0.6995 (  2148 PWs)   bands (ev):

    -1.5032  -1.5032  -1.4075  -1.4075   2.3119   2.3119   2.3883   2.3883
    10.3960  10.3960  10.5033  10.5033  11.2045  11.2045  11.2528  11.2528

          k =-0.0000 0.3637 0.6970 (  2148 PWs)   bands (ev):

    -1.5188  -1.5188  -1.3924  -1.3924   2.3001   2.3001   2.4029   2.4029
    10.3548  10.3548  10.5103  10.5103  11.2215  11.2215  11.2732  11.2732

          k = 0.0000 0.3662 0.6945 (  2148 PWs)   bands (ev):

    -1.5342  -1.5342  -1.3777  -1.3777   2.2884   2.2884   2.4182   2.4182
    10.3082  10.3082  10.5158  10.5158  11.2446  11.2446  11.2953  11.2953

          k = 0.0000 0.3687 0.6920 (  2148 PWs)   bands (ev):

    -1.5494  -1.5494  -1.3634  -1.3634   2.2769   2.2769   2.4341   2.4341
    10.2572  10.2572  10.5201  10.5201  11.2725  11.2725  11.3190  11.3190

          k = 0.0000 0.3712 0.6894 (  2147 PWs)   bands (ev):

    -1.5643  -1.5643  -1.3495  -1.3495   2.2655   2.2655   2.4506   2.4506
    10.2030  10.2030  10.5232  10.5232  11.3043  11.3043  11.3443  11.3443

          k = 0.0000 0.3738 0.6869 (  2145 PWs)   bands (ev):

    -1.5790  -1.5790  -1.3360  -1.3360   2.2543   2.2543   2.4677   2.4677
    10.1464  10.1464  10.5252  10.5252  11.3391  11.3391  11.3709  11.3709

          k = 0.0000 0.3763 0.6844 (  2145 PWs)   bands (ev):

    -1.5934  -1.5934  -1.3228  -1.3228   2.2433   2.2433   2.4854   2.4854
    10.0879  10.0879  10.5262  10.5262  11.3763  11.3763  11.3990  11.3990

          k = 0.0000 0.3788 0.6819 (  2149 PWs)   bands (ev):

    -1.6077  -1.6077  -1.3101  -1.3101   2.2324   2.2324   2.5038   2.5038
    10.0280  10.0280  10.5264  10.5264  11.4155  11.4155  11.4282  11.4282

          k =-0.0000 0.3813 0.6793 (  2149 PWs)   bands (ev):

    -1.6216  -1.6216  -1.2977  -1.2977   2.2216   2.2216   2.5227   2.5227
     9.9671   9.9671  10.5257  10.5257  11.4564  11.4564  11.4585  11.4585

          k =-0.0000 0.3839 0.6768 (  2151 PWs)   bands (ev):

    -1.6354  -1.6354  -1.2856  -1.2856   2.2110   2.2110   2.5422   2.5422
     9.9055   9.9055  10.5244  10.5244  11.4899  11.4899  11.4985  11.4985

          k =-0.0000 0.3864 0.6743 (  2147 PWs)   bands (ev):

    -1.6489  -1.6489  -1.2740  -1.2740   2.2006   2.2006   2.5622   2.5622
     9.8433   9.8433  10.5224  10.5224  11.5222  11.5222  11.5418  11.5418

          k = 0.0000 0.3889 0.6718 (  2147 PWs)   bands (ev):

    -1.6622  -1.6622  -1.2627  -1.2627   2.1904   2.1904   2.5828   2.5828
     9.7809   9.7809  10.5199  10.5199  11.5554  11.5554  11.5861  11.5861

          k = 0.0000 0.3914 0.6692 (  2147 PWs)   bands (ev):

    -1.6753  -1.6753  -1.2518  -1.2518   2.1803   2.1803   2.6040   2.6040
     9.7182   9.7182  10.5170  10.5170  11.5894  11.5894  11.6312  11.6312

          k = 0.0000 0.3940 0.6667 (  2149 PWs)   bands (ev):

    -1.6881  -1.6881  -1.2412  -1.2412   2.1704   2.1704   2.6257   2.6257
     9.6555   9.6555  10.5136  10.5136  11.6241  11.6241  11.6770  11.6770

          k = 0.0000 0.3965 0.6642 (  2149 PWs)   bands (ev):

    -1.7007  -1.7007  -1.2310  -1.2310   2.1606   2.1606   2.6478   2.6478
     9.5928   9.5928  10.5099  10.5099  11.6594  11.6594  11.7235  11.7235

          k = 0.0000 0.3990 0.6616 (  2149 PWs)   bands (ev):

    -1.7131  -1.7131  -1.2211  -1.2211   2.1510   2.1510   2.6705   2.6705
     9.5301   9.5301  10.5059  10.5059  11.6954  11.6954  11.7706  11.7706

          k = 0.0000 0.4015 0.6591 (  2149 PWs)   bands (ev):

    -1.7253  -1.7253  -1.2116  -1.2116   2.1416   2.1416   2.6936   2.6936
     9.4676   9.4676  10.5017  10.5017  11.7319  11.7319  11.8181  11.8181

          k = 0.0000 0.4041 0.6566 (  2149 PWs)   bands (ev):

    -1.7372  -1.7372  -1.2024  -1.2024   2.1324   2.1324   2.7172   2.7172
     9.4054   9.4054  10.4972  10.4972  11.7690  11.7690  11.8662  11.8662

          k = 0.0000 0.4066 0.6541 (  2147 PWs)   bands (ev):

    -1.7488  -1.7488  -1.1935  -1.1935   2.1233   2.1233   2.7413   2.7413
     9.3434   9.3434  10.4925  10.4925  11.8065  11.8065  11.9147  11.9147

          k =-0.0000 0.4091 0.6515 (  2147 PWs)   bands (ev):

    -1.7603  -1.7603  -1.1850  -1.1850   2.1144   2.1144   2.7657   2.7657
     9.2817   9.2817  10.4878  10.4878  11.8445  11.8445  11.9636  11.9636

          k =-0.0000 0.4116 0.6490 (  2143 PWs)   bands (ev):

    -1.7715  -1.7715  -1.1767  -1.1767   2.1056   2.1056   2.7906   2.7906
     9.2204   9.2204  10.4829  10.4829  11.8829  11.8829  12.0128  12.0128

          k =-0.0000 0.4142 0.6465 (  2143 PWs)   bands (ev):

    -1.7824  -1.7824  -1.1688  -1.1688   2.0971   2.0971   2.8158   2.8158
     9.1594   9.1594  10.4779  10.4779  11.9216  11.9216  12.0624  12.0624

          k = 0.0000 0.4167 0.6440 (  2143 PWs)   bands (ev):

    -1.7932  -1.7932  -1.1612  -1.1612   2.0887   2.0887   2.8414   2.8414
     9.0989   9.0989  10.4728  10.4728  11.9608  11.9608  12.1124  12.1124

          k = 0.0000 0.4192 0.6414 (  2139 PWs)   bands (ev):

    -1.8037  -1.8037  -1.1539  -1.1539   2.0805   2.0805   2.8673   2.8673
     9.0388   9.0388  10.4677  10.4677  12.0002  12.0002  12.1626  12.1626

          k = 0.0000 0.4217 0.6389 (  2139 PWs)   bands (ev):

    -1.8139  -1.8139  -1.1469  -1.1469   2.0724   2.0724   2.8936   2.8936
     8.9793   8.9793  10.4626  10.4626  12.0400  12.0400  12.2132  12.2132

          k = 0.0000 0.4243 0.6364 (  2139 PWs)   bands (ev):

    -1.8240  -1.8240  -1.1401  -1.1401   2.0646   2.0646   2.9201   2.9201
     8.9202   8.9202  10.4575  10.4575  12.0800  12.0800  12.2640  12.2640

          k = 0.0000 0.4268 0.6339 (  2139 PWs)   bands (ev):

    -1.8338  -1.8338  -1.1336  -1.1336   2.0569   2.0569   2.9468   2.9468
     8.8617   8.8617  10.4524  10.4524  12.1204  12.1204  12.3152  12.3152

          k = 0.0000 0.4293 0.6313 (  2138 PWs)   bands (ev):

    -1.8433  -1.8433  -1.1274  -1.1274   2.0494   2.0494   2.9738   2.9738
     8.8038   8.8038  10.4473  10.4473  12.1610  12.1610  12.3665  12.3665

          k =-0.0000 0.4318 0.6288 (  2138 PWs)   bands (ev):

    -1.8527  -1.8527  -1.1215  -1.1215   2.0420   2.0420   3.0010   3.0010
     8.7465   8.7465  10.4422  10.4422  12.2018  12.2018  12.4181  12.4181

          k =-0.0000 0.4344 0.6263 (  2138 PWs)   bands (ev):

    -1.8618  -1.8618  -1.1158  -1.1158   2.0349   2.0349   3.0284   3.0284
     8.6898   8.6898  10.4372  10.4372  12.2428  12.2428  12.4700  12.4700

          k =-0.0000 0.4369 0.6238 (  2137 PWs)   bands (ev):

    -1.8706  -1.8706  -1.1103  -1.1103   2.0279   2.0279   3.0559   3.0559
     8.6338   8.6338  10.4322  10.4322  12.2840  12.2840  12.5221  12.5221

          k =-0.0000 0.4394 0.6212 (  2137 PWs)   bands (ev):

    -1.8793  -1.8793  -1.1051  -1.1051   2.0211   2.0211   3.0835   3.0835
     8.5785   8.5785  10.4273  10.4273  12.3255  12.3255  12.5744  12.5744

          k =-0.0000 0.4419 0.6187 (  2130 PWs)   bands (ev):

    -1.8876  -1.8876  -1.1001  -1.1001   2.0145   2.0145   3.1112   3.1112
     8.5240   8.5240  10.4225  10.4225  12.3671  12.3671  12.6269  12.6269

          k = 0.0000 0.4445 0.6162 (  2134 PWs)   bands (ev):

    -1.8958  -1.8958  -1.0954  -1.0954   2.0080   2.0080   3.1389   3.1389
     8.4702   8.4702  10.4177  10.4177  12.4088  12.4088  12.6796  12.6796

          k = 0.0000 0.4470 0.6137 (  2134 PWs)   bands (ev):

    -1.9037  -1.9037  -1.0909  -1.0909   2.0018   2.0018   3.1667   3.1667
     8.4172   8.4172  10.4131  10.4131  12.4507  12.4507  12.7326  12.7326

          k = 0.0000 0.4495 0.6111 (  2134 PWs)   bands (ev):

    -1.9114  -1.9114  -1.0865  -1.0865   1.9957   1.9957   3.1944   3.1944
     8.3650   8.3650  10.4085  10.4085  12.4928  12.4928  12.7857  12.7857

          k = 0.0000 0.4520 0.6086 (  2132 PWs)   bands (ev):

    -1.9189  -1.9189  -1.0824  -1.0824   1.9898   1.9898   3.2220   3.2220
     8.3138   8.3138  10.4040  10.4040  12.5350  12.5350  12.8390  12.8390

          k = 0.0000 0.4546 0.6061 (  2132 PWs)   bands (ev):

    -1.9261  -1.9261  -1.0785  -1.0785   1.9841   1.9841   3.2495   3.2495
     8.2634   8.2634  10.3996  10.3996  12.5772  12.5772  12.8925  12.8925

          k =-0.0000 0.4571 0.6036 (  2132 PWs)   bands (ev):

    -1.9330  -1.9330  -1.0748  -1.0748   1.9785   1.9785   3.2769   3.2769
     8.2139   8.2139  10.3954  10.3954  12.6196  12.6196  12.9461  12.9461

          k =-0.0000 0.4596 0.6010 (  2132 PWs)   bands (ev):

    -1.9398  -1.9398  -1.0712  -1.0712   1.9732   1.9732   3.3040   3.3040
     8.1655   8.1655  10.3912  10.3912  12.6621  12.6621  13.0000  13.0000

          k =-0.0000 0.4621 0.5985 (  2132 PWs)   bands (ev):

    -1.9463  -1.9463  -1.0679  -1.0679   1.9680   1.9680   3.3310   3.3310
     8.1181   8.1181  10.3872  10.3872  12.7046  12.7046  13.0540  13.0540

          k =-0.0000 0.4647 0.5960 (  2130 PWs)   bands (ev):

    -1.9526  -1.9526  -1.0647  -1.0647   1.9630   1.9630   3.3576   3.3576
     8.0717   8.0717  10.3833  10.3833  12.7472  12.7472  13.1081  13.1081

          k =-0.0000 0.4672 0.5935 (  2132 PWs)   bands (ev):

    -1.9586  -1.9586  -1.0617  -1.0617   1.9583   1.9583   3.3839   3.3839
     8.0265   8.0265  10.3795  10.3795  12.7898  12.7898  13.1624  13.1624

          k = 0.0000 0.4697 0.5909 (  2132 PWs)   bands (ev):

    -1.9644  -1.9644  -1.0588  -1.0588   1.9536   1.9536   3.4099   3.4099
     7.9824   7.9824  10.3758  10.3758  12.8324  12.8324  13.2168  13.2168

          k = 0.0000 0.4722 0.5884 (  2132 PWs)   bands (ev):

    -1.9700  -1.9700  -1.0562  -1.0562   1.9492   1.9492   3.4353   3.4353
     7.9395   7.9395  10.3723  10.3723  12.8751  12.8751  13.2714  13.2714

          k = 0.0000 0.4748 0.5859 (  2132 PWs)   bands (ev):

    -1.9753  -1.9753  -1.0536  -1.0536   1.9450   1.9450   3.4603   3.4603
     7.8979   7.8979  10.3689  10.3689  12.9177  12.9177  13.3261  13.3261

          k =-0.0000 0.4773 0.5834 (  2132 PWs)   bands (ev):

    -1.9804  -1.9804  -1.0512  -1.0512   1.9409   1.9409   3.4848   3.4848
     7.8576   7.8576  10.3656  10.3656  12.9603  12.9603  13.3809  13.3809

          k =-0.0000 0.4798 0.5808 (  2124 PWs)   bands (ev):

    -1.9852  -1.9852  -1.0490  -1.0490   1.9371   1.9371   3.5087   3.5087
     7.8186   7.8186  10.3625  10.3625  13.0028  13.0028  13.4358  13.4358

          k =-0.0000 0.4823 0.5783 (  2124 PWs)   bands (ev):

    -1.9898  -1.9898  -1.0469  -1.0469   1.9334   1.9334   3.5319   3.5319
     7.7811   7.7811  10.3595  10.3595  13.0452  13.0452  13.4909  13.4909

          k =-0.0000 0.4849 0.5758 (  2122 PWs)   bands (ev):

    -1.9942  -1.9942  -1.0449  -1.0449   1.9299   1.9299   3.5544   3.5544
     7.7450   7.7450  10.3567  10.3567  13.0875  13.0875  13.5460  13.5460

          k =-0.0000 0.4874 0.5733 (  2122 PWs)   bands (ev):

    -1.9984  -1.9984  -1.0430  -1.0430   1.9266   1.9266   3.5761   3.5761
     7.7104   7.7104  10.3540  10.3540  13.1296  13.1296  13.6011  13.6011

          k =-0.0000 0.4899 0.5707 (  2128 PWs)   bands (ev):

    -2.0023  -2.0023  -1.0413  -1.0413   1.9235   1.9235   3.5970   3.5970
     7.6774   7.6774  10.3514  10.3514  13.1715  13.1715  13.6564  13.6564

          k =-0.0000 0.4924 0.5682 (  2127 PWs)   bands (ev):

    -2.0059  -2.0059  -1.0397  -1.0397   1.9205   1.9205   3.6171   3.6171
     7.6461   7.6461  10.3490  10.3490  13.2131  13.2131  13.7116  13.7116

          k =-0.0000 0.4950 0.5657 (  2127 PWs)   bands (ev):

    -2.0094  -2.0094  -1.0383  -1.0383   1.9178   1.9178   3.6362   3.6362
     7.6164   7.6164  10.3468  10.3468  13.2544  13.2544  13.7669  13.7669

          k = 0.0000 0.4975 0.5632 (  2127 PWs)   bands (ev):

    -2.0126  -2.0126  -1.0369  -1.0369   1.9152   1.9152   3.6542   3.6542
     7.5885   7.5885  10.3446  10.3446  13.2953  13.2953  13.8222  13.8222

          k = 0.0000 0.5000 0.5606 (  2127 PWs)   bands (ev):

    -2.0155  -2.0155  -1.0356  -1.0356   1.9129   1.9129   3.6712   3.6712
     7.5624   7.5624  10.3427  10.3427  13.3357  13.3357  13.8774  13.8774

          k = 0.0000 0.5026 0.5581 (  2131 PWs)   bands (ev):

    -2.0183  -2.0183  -1.0345  -1.0345   1.9107   1.9107   3.6872   3.6872
     7.5381   7.5381  10.3409  10.3409  13.3754  13.3754  13.9326  13.9326

          k =-0.0000 0.5051 0.5556 (  2131 PWs)   bands (ev):

    -2.0207  -2.0207  -1.0335  -1.0335   1.9087   1.9087   3.7019   3.7019
     7.5157   7.5157  10.3392  10.3392  13.4143  13.4143  13.9875  13.9875

          k =-0.0000 0.5076 0.5531 (  2131 PWs)   bands (ev):

    -2.0230  -2.0230  -1.0326  -1.0326   1.9069   1.9069   3.7154   3.7154
     7.4953   7.4953  10.3378  10.3378  13.4523  13.4523  14.0423  14.0423

          k =-0.0000 0.5101 0.5505 (  2135 PWs)   bands (ev):

    -2.0250  -2.0250  -1.0317  -1.0317   1.9053   1.9053   3.7276   3.7276
     7.4769   7.4769  10.3364  10.3364  13.4889  13.4889  14.0967  14.0967

          k =-0.0000 0.5127 0.5480 (  2135 PWs)   bands (ev):

    -2.0268  -2.0268  -1.0310  -1.0310   1.9039   1.9039   3.7385   3.7385
     7.4606   7.4606  10.3352  10.3352  13.5239  13.5239  14.1505  14.1505

          k =-0.0000 0.5152 0.5455 (  2135 PWs)   bands (ev):

    -2.0283  -2.0283  -1.0304  -1.0304   1.9027   1.9027   3.7481   3.7481
     7.4463   7.4463  10.3342  10.3342  13.5568  13.5568  14.2036  14.2036

          k =-0.0000 0.5177 0.5430 (  2135 PWs)   bands (ev):

    -2.0296  -2.0296  -1.0299  -1.0299   1.9016   1.9016   3.7562   3.7562
     7.4342   7.4342  10.3333  10.3333  13.5871  13.5871  14.2554  14.2554

          k = 0.0000 0.5202 0.5404 (  2135 PWs)   bands (ev):

    -2.0307  -2.0307  -1.0294  -1.0294   1.9008   1.9008   3.7629   3.7629
     7.4242   7.4242  10.3326  10.3326  13.6140  13.6140  14.2685  14.2685

          k = 0.0000 0.5228 0.5379 (  2135 PWs)   bands (ev):

    -2.0315  -2.0315  -1.0291  -1.0291   1.9001   1.9001   3.7682   3.7682
     7.4164   7.4164  10.3321  10.3321  13.6365  13.6365  14.2461  14.2461

          k = 0.0000 0.5253 0.5354 (  2135 PWs)   bands (ev):

    -2.0321  -2.0321  -1.0289  -1.0289   1.8996   1.8996   3.7719   3.7719
     7.4109   7.4109  10.3317  10.3317  13.6536  13.6536  14.2291  14.2291

          k = 0.0000 0.5278 0.5329 (  2135 PWs)   bands (ev):

    -2.0325  -2.0325  -1.0287  -1.0287   1.8993   1.8993   3.7742   3.7742
     7.4075   7.4075  10.3314  10.3314  13.6644  13.6644  14.2183  14.2183

          k = 0.0000 0.5303 0.5303 (  2129 PWs)   bands (ev):

    -2.0326  -2.0326  -1.0287  -1.0287   1.8992   1.8992   3.7750   3.7750
     7.4064   7.4064  10.3314  10.3314  13.6681  13.6681  14.2146  14.2146

     Writing output data file GS.save/

     init_run     :      0.38s CPU      0.50s WALL (       1 calls)
     electrons    :     47.40s CPU     50.63s WALL (       1 calls)

     Called by init_run:
     wfcinit      :      0.00s CPU      0.03s WALL (       1 calls)
     wfcinit:atom :      0.01s CPU      0.01s WALL (     351 calls)
     wfcinit:wfcr :      1.88s CPU      2.19s WALL (     351 calls)
     potinit      :      0.12s CPU      0.20s WALL (       1 calls)
     hinit0       :      0.04s CPU      0.05s WALL (       1 calls)

     Called by electrons:
     c_bands      :     47.40s CPU     50.61s WALL (       1 calls)
     v_of_rho     :      0.01s CPU      0.01s WALL (       1 calls)
     v_h          :      0.00s CPU      0.00s WALL (       1 calls)
     v_xc         :      0.01s CPU      0.01s WALL (       1 calls)
     newd         :      0.00s CPU      0.01s WALL (       1 calls)
     PAW_pot      :      0.11s CPU      0.11s WALL (       1 calls)

     Called by c_bands:
     init_us_2    :      0.01s CPU      0.02s WALL (     351 calls)
     cegterg      :     45.27s CPU     47.90s WALL (     601 calls)

     Called by sum_band:

     Called by *egterg:
     h_psi        :     23.05s CPU     25.27s WALL (    9759 calls)
     s_psi        :      0.45s CPU      0.49s WALL (    9759 calls)
     g_psi        :      0.06s CPU      0.06s WALL (    8807 calls)
     cdiaghg      :     17.98s CPU     18.37s WALL (    9158 calls)
     cegterg:over :      2.83s CPU      3.02s WALL (    8807 calls)
     cegterg:upda :      1.50s CPU      1.54s WALL (    8807 calls)
     cegterg:last :      0.63s CPU      0.64s WALL (    2050 calls)
     cdiaghg:chol :      0.96s CPU      1.04s WALL (    9158 calls)
     cdiaghg:inve :      0.24s CPU      0.26s WALL (    9158 calls)
     cdiaghg:para :      1.33s CPU      1.40s WALL (   18316 calls)

     Called by h_psi:
     h_psi:pot    :     23.01s CPU     25.22s WALL (    9759 calls)
     h_psi:calbec :      1.11s CPU      1.22s WALL (    9759 calls)
     vloc_psi     :     21.34s CPU     23.40s WALL (    9759 calls)
     add_vuspsi   :      0.50s CPU      0.54s WALL (    9759 calls)

     General routines
     calbec       :      1.08s CPU      1.19s WALL (    9759 calls)
     fft          :      0.00s CPU      0.00s WALL (      15 calls)
     fftw         :     19.72s CPU     21.61s WALL (  398440 calls)
     davcio       :      0.05s CPU      0.06s WALL (     702 calls)

     Parallel routines
     fft_scatt_xy :      1.21s CPU      1.33s WALL (  398455 calls)
     fft_scatt_yz :     10.96s CPU     12.00s WALL (  398455 calls)

     PAW routines
     PAW_pot      :      0.11s CPU      0.11s WALL (       1 calls)

     PWSCF        :     51.81s CPU   1m11.66s WALL


   This run was terminated on:  17: 9:35   3Aug2019            

=------------------------------------------------------------------------------=
   JOB DONE.
=------------------------------------------------------------------------------=
