
     Program PWSCF v.6.4 starts on  3Aug2019 at 16:51:11 

     This program is part of the open-source Quantum ESPRESSO suite
     for quantum simulation of materials; please cite
         "P. Giannozzi et al., J. Phys.:Condens. Matter 21 395502 (2009);
         "P. Giannozzi et al., J. Phys.:Condens. Matter 29 465901 (2017);
          URL http://www.quantum-espresso.org", 
     in publications or presentations arising from this work. More details at
     http://www.quantum-espresso.org/quote

     Parallel version (MPI), running on    40 processors

     MPI processes distributed on     1 nodes
     R & G space division:  proc/nbgrp/npool/nimage =      40
     Waiting for input...
     Reading input from standard input

     Current dimensions of program PWSCF are:
     Max number of different atomic species (ntypx) = 10
     Max number of k-points (npk) =  40000
     Max angular momentum in pseudopotentials (lmaxx) =  3
     Message from routine iosys:
     london is obsolete, use "vdw_corr='grimme-d2'" instead
               file Si.pbe-n-kjpaw_psl.1.0.0.UPF: wavefunction(s)  3S 3P renormalized

     -------------------------------------------------
     Parameters for Dispersion (Grimme-D2) Correction:
     -------------------------------------------------
       atom      VdW radius       C_6     

        Si         3.243        320.200
     Message from routine setup:
     At least one non s.o. pseudo

     Subspace diagonalization in iterative solution of the eigenvalue problem:
     one sub-group per band group will be used
     scalapack distributed-memory algorithm (size of sub-group:  4*  4 procs)


     Parallelization info
     --------------------
     sticks:   dense  smooth     PW     G-vecs:    dense   smooth      PW
     Min          21      21      6                  420      420      67
     Max          22      22      7                  426      426      71
     Sum         859     859    253                16889    16889    2741



     bravais-lattice index     =            0
     lattice parameter (alat)  =       7.2571  a.u.
     unit-cell volume          =     270.2564 (a.u.)^3
     number of atoms/cell      =            2
     number of atomic types    =            1
     number of electrons       =         8.00
     number of Kohn-Sham states=           12
     kinetic-energy cutoff     =      60.0000  Ry
     charge density cutoff     =     240.0000  Ry
     convergence threshold     =      1.0E-12
     mixing beta               =       0.7000
     number of iterations used =            8  plain     mixing
     Exchange-correlation      = SLA PW PBX PBC ( 1  4  3  4 0 0)
     Using LIBXC version       =    4   2   3
     Non magnetic calculation with spin-orbit


     celldm(1)=   7.257109  celldm(2)=   0.000000  celldm(3)=   0.000000
     celldm(4)=   0.000000  celldm(5)=   0.000000  celldm(6)=   0.000000

     crystal axes: (cart. coord. in units of alat)
               a(1) = (   0.000000   0.707107   0.707107 )  
               a(2) = (   0.707107   0.000000   0.707107 )  
               a(3) = (   0.707107   0.707107   0.000000 )  

     reciprocal axes: (cart. coord. in units 2 pi/alat)
               b(1) = ( -0.707107  0.707107  0.707107 )  
               b(2) = (  0.707107 -0.707107  0.707107 )  
               b(3) = (  0.707107  0.707107 -0.707107 )  


     PseudoPot. # 1 for Si read from file:
     ../PP/Si.pbe-n-kjpaw_psl.1.0.0.UPF
     MD5 check sum: c39c59da582df4a0d9f10159256ea34e
     Pseudo is Projector augmented-wave + core cor, Zval =  4.0
     Generated using "atomic" code by A. Dal Corso v.6.3
     Shape of augmentation charge: PSQ
     Using radial grid of 1141 points,  6 beta functions with: 
                l(1) =   0
                l(2) =   0
                l(3) =   1
                l(4) =   1
                l(5) =   2
                l(6) =   2
     Q(r) pseudized with 0 coefficients 


     atomic species   valence    mass     pseudopotential
        Si             4.00    28.08550     Si( 1.00)

     48 Sym. Ops., with inversion, found (36 have fractional translation)


                                    s                        frac. trans.

      isym =  1     identity                                     

 cryst.   s( 1) = (     1          0          0      )
                  (     0          1          0      )
                  (     0          0          1      )

 cart.    s( 1) = (  1.0000000 -0.0000000  0.0000000 )
                  ( -0.0000000  1.0000000  0.0000000 )
                  ( -0.0000000  0.0000000  1.0000000 )


      isym =  2     180 deg rotation - cart. axis [0,0,1]        

 cryst.   s( 2) = (     0          1         -1      )    f =(  0.0000000 )
                  (     1          0         -1      )       (  0.0000000 )
                  (     0          0         -1      )       (  0.5000000 )

 cart.    s( 2) = ( -1.0000000  0.0000000  0.0000000 )    f =(  0.3535534 )
                  (  0.0000000 -1.0000000  0.0000000 )       (  0.3535534 )
                  (  0.0000000 -0.0000000  1.0000000 )       (  0.0000000 )


      isym =  3     180 deg rotation - cart. axis [0,1,0]        

 cryst.   s( 3) = (     0         -1          1      )    f =(  0.0000000 )
                  (     0         -1          0      )       (  0.5000000 )
                  (     1         -1          0      )       (  0.0000000 )

 cart.    s( 3) = ( -1.0000000 -0.0000000 -0.0000000 )    f =(  0.3535534 )
                  (  0.0000000  1.0000000 -0.0000000 )       (  0.0000000 )
                  (  0.0000000  0.0000000 -1.0000000 )       (  0.3535534 )


      isym =  4     180 deg rotation - cart. axis [1,0,0]        

 cryst.   s( 4) = (    -1          0          0      )    f =(  0.5000000 )
                  (    -1          0          1      )       (  0.0000000 )
                  (    -1          1          0      )       (  0.0000000 )

 cart.    s( 4) = (  1.0000000  0.0000000 -0.0000000 )    f =(  0.0000000 )
                  ( -0.0000000 -1.0000000 -0.0000000 )       (  0.3535534 )
                  ( -0.0000000 -0.0000000 -1.0000000 )       (  0.3535534 )


      isym =  5     180 deg rotation - cart. axis [1,1,0]        

 cryst.   s( 5) = (    -1          0          1      )    f =(  0.0000000 )
                  (     0         -1          1      )       (  0.0000000 )
                  (     0          0          1      )       (  0.5000000 )

 cart.    s( 5) = ( -0.0000000  1.0000000 -0.0000000 )    f =(  0.3535534 )
                  (  1.0000000 -0.0000000 -0.0000000 )       (  0.3535534 )
                  (  0.0000000 -0.0000000 -1.0000000 )       (  0.0000000 )


      isym =  6     180 deg rotation - cart. axis [1,-1,0]       

 cryst.   s( 6) = (     0         -1          0      )
                  (    -1          0          0      )
                  (     0          0         -1      )

 cart.    s( 6) = (  0.0000000 -1.0000000 -0.0000000 )
                  ( -1.0000000  0.0000000 -0.0000000 )
                  ( -0.0000000  0.0000000 -1.0000000 )


      isym =  7      90 deg rotation - cart. axis [0,0,-1]       

 cryst.   s( 7) = (     0          1          0      )    f =(  0.0000000 )
                  (     0          1         -1      )       (  0.5000000 )
                  (    -1          1          0      )       (  0.0000000 )

 cart.    s( 7) = (  0.0000000  1.0000000  0.0000000 )    f =(  0.3535534 )
                  ( -1.0000000 -0.0000000  0.0000000 )       (  0.0000000 )
                  ( -0.0000000 -0.0000000  1.0000000 )       (  0.3535534 )


      isym =  8      90 deg rotation - cart. axis [0,0,1]        

 cryst.   s( 8) = (     1          0         -1      )    f =(  0.5000000 )
                  (     1          0          0      )       (  0.0000000 )
                  (     1         -1          0      )       (  0.0000000 )

 cart.    s( 8) = ( -0.0000000 -1.0000000  0.0000000 )    f =(  0.0000000 )
                  (  1.0000000  0.0000000  0.0000000 )       (  0.3535534 )
                  (  0.0000000  0.0000000  1.0000000 )       (  0.3535534 )


      isym =  9     180 deg rotation - cart. axis [1,0,1]        

 cryst.   s( 9) = (    -1          1          0      )    f =(  0.0000000 )
                  (     0          1          0      )       (  0.5000000 )
                  (     0          1         -1      )       (  0.0000000 )

 cart.    s( 9) = (  0.0000000  0.0000000  1.0000000 )    f =(  0.3535534 )
                  (  0.0000000 -1.0000000 -0.0000000 )       (  0.0000000 )
                  (  1.0000000 -0.0000000 -0.0000000 )       (  0.3535534 )


      isym = 10     180 deg rotation - cart. axis [-1,0,1]       

 cryst.   s(10) = (     0          0         -1      )
                  (     0         -1          0      )
                  (    -1          0          0      )

 cart.    s(10) = ( -0.0000000  0.0000000 -1.0000000 )
                  ( -0.0000000 -1.0000000  0.0000000 )
                  ( -1.0000000 -0.0000000  0.0000000 )


      isym = 11      90 deg rotation - cart. axis [0,1,0]        

 cryst.   s(11) = (     0          0          1      )    f =(  0.0000000 )
                  (    -1          0          1      )       (  0.0000000 )
                  (     0         -1          1      )       (  0.5000000 )

 cart.    s(11) = ( -0.0000000 -0.0000000  1.0000000 )    f =(  0.3535534 )
                  ( -0.0000000  1.0000000 -0.0000000 )       (  0.3535534 )
                  ( -1.0000000  0.0000000 -0.0000000 )       (  0.0000000 )


      isym = 12      90 deg rotation - cart. axis [0,-1,0]       

 cryst.   s(12) = (     1         -1          0      )    f =(  0.5000000 )
                  (     1          0         -1      )       (  0.0000000 )
                  (     1          0          0      )       (  0.0000000 )

 cart.    s(12) = (  0.0000000 -0.0000000 -1.0000000 )    f =(  0.0000000 )
                  (  0.0000000  1.0000000  0.0000000 )       (  0.3535534 )
                  (  1.0000000  0.0000000  0.0000000 )       (  0.3535534 )


      isym = 13     180 deg rotation - cart. axis [0,1,1]        

 cryst.   s(13) = (     1          0          0      )    f =(  0.5000000 )
                  (     1         -1          0      )       (  0.0000000 )
                  (     1          0         -1      )       (  0.0000000 )

 cart.    s(13) = ( -1.0000000  0.0000000 -0.0000000 )    f =(  0.0000000 )
                  (  0.0000000  0.0000000  1.0000000 )       (  0.3535534 )
                  (  0.0000000  1.0000000  0.0000000 )       (  0.3535534 )


      isym = 14     180 deg rotation - cart. axis [0,1,-1]       

 cryst.   s(14) = (    -1          0          0      )
                  (     0          0         -1      )
                  (     0         -1          0      )

 cart.    s(14) = ( -1.0000000 -0.0000000  0.0000000 )
                  (  0.0000000 -0.0000000 -1.0000000 )
                  (  0.0000000 -1.0000000 -0.0000000 )


      isym = 15      90 deg rotation - cart. axis [-1,0,0]       

 cryst.   s(15) = (     0         -1          1      )    f =(  0.0000000 )
                  (     0          0          1      )       (  0.0000000 )
                  (    -1          0          1      )       (  0.5000000 )

 cart.    s(15) = (  1.0000000 -0.0000000 -0.0000000 )    f =(  0.3535534 )
                  ( -0.0000000 -0.0000000  1.0000000 )       (  0.3535534 )
                  ( -0.0000000 -1.0000000  0.0000000 )       (  0.0000000 )


      isym = 16      90 deg rotation - cart. axis [1,0,0]        

 cryst.   s(16) = (     0          1         -1      )    f =(  0.0000000 )
                  (    -1          1          0      )       (  0.5000000 )
                  (     0          1          0      )       (  0.0000000 )

 cart.    s(16) = (  1.0000000  0.0000000  0.0000000 )    f =(  0.3535534 )
                  ( -0.0000000  0.0000000 -1.0000000 )       (  0.0000000 )
                  ( -0.0000000  1.0000000 -0.0000000 )       (  0.3535534 )


      isym = 17     120 deg rotation - cart. axis [-1,-1,-1]     

 cryst.   s(17) = (     0          0          1      )
                  (     1          0          0      )
                  (     0          1          0      )

 cart.    s(17) = (  0.0000000  1.0000000 -0.0000000 )
                  (  0.0000000 -0.0000000  1.0000000 )
                  (  1.0000000 -0.0000000  0.0000000 )


      isym = 18     120 deg rotation - cart. axis [-1,1,1]       

 cryst.   s(18) = (     1         -1          0      )    f =(  0.0000000 )
                  (     0         -1          1      )       (  0.5000000 )
                  (     0         -1          0      )       (  0.0000000 )

 cart.    s(18) = ( -0.0000000 -1.0000000 -0.0000000 )    f =(  0.3535534 )
                  ( -0.0000000  0.0000000  1.0000000 )       (  0.0000000 )
                  ( -1.0000000  0.0000000  0.0000000 )       (  0.3535534 )


      isym = 19     120 deg rotation - cart. axis [1,1,-1]       

 cryst.   s(19) = (    -1          1          0      )    f =(  0.5000000 )
                  (    -1          0          0      )       (  0.0000000 )
                  (    -1          0          1      )       (  0.0000000 )

 cart.    s(19) = ( -0.0000000  1.0000000  0.0000000 )    f =(  0.0000000 )
                  ( -0.0000000 -0.0000000 -1.0000000 )       (  0.3535534 )
                  ( -1.0000000 -0.0000000 -0.0000000 )       (  0.3535534 )


      isym = 20     120 deg rotation - cart. axis [1,-1,1]       

 cryst.   s(20) = (     0          0         -1      )    f =(  0.0000000 )
                  (     0          1         -1      )       (  0.0000000 )
                  (     1          0         -1      )       (  0.5000000 )

 cart.    s(20) = (  0.0000000 -1.0000000  0.0000000 )    f =(  0.3535534 )
                  (  0.0000000  0.0000000 -1.0000000 )       (  0.3535534 )
                  (  1.0000000  0.0000000 -0.0000000 )       (  0.0000000 )


      isym = 21     120 deg rotation - cart. axis [1,1,1]        

 cryst.   s(21) = (     0          1          0      )
                  (     0          0          1      )
                  (     1          0          0      )

 cart.    s(21) = ( -0.0000000  0.0000000  1.0000000 )
                  (  1.0000000  0.0000000 -0.0000000 )
                  (  0.0000000  1.0000000 -0.0000000 )


      isym = 22     120 deg rotation - cart. axis [-1,1,-1]      

 cryst.   s(22) = (    -1          0          1      )    f =(  0.5000000 )
                  (    -1          1          0      )       (  0.0000000 )
                  (    -1          0          0      )       (  0.0000000 )

 cart.    s(22) = (  0.0000000 -0.0000000  1.0000000 )    f =(  0.0000000 )
                  ( -1.0000000 -0.0000000 -0.0000000 )       (  0.3535534 )
                  ( -0.0000000 -1.0000000 -0.0000000 )       (  0.3535534 )


      isym = 23     120 deg rotation - cart. axis [1,-1,-1]      

 cryst.   s(23) = (     1          0         -1      )    f =(  0.0000000 )
                  (     0          0         -1      )       (  0.0000000 )
                  (     0          1         -1      )       (  0.5000000 )

 cart.    s(23) = (  0.0000000  0.0000000 -1.0000000 )    f =(  0.3535534 )
                  ( -1.0000000  0.0000000  0.0000000 )       (  0.3535534 )
                  ( -0.0000000  1.0000000  0.0000000 )       (  0.0000000 )


      isym = 24     120 deg rotation - cart. axis [-1,-1,1]      

 cryst.   s(24) = (     0         -1          0      )    f =(  0.0000000 )
                  (     1         -1          0      )       (  0.5000000 )
                  (     0         -1          1      )       (  0.0000000 )

 cart.    s(24) = ( -0.0000000 -0.0000000 -1.0000000 )    f =(  0.3535534 )
                  (  1.0000000 -0.0000000  0.0000000 )       (  0.0000000 )
                  (  0.0000000 -1.0000000  0.0000000 )       (  0.3535534 )


      isym = 25     inversion                                    

 cryst.   s(25) = (    -1          0          0      )
                  (     0         -1          0      )
                  (     0          0         -1      )

 cart.    s(25) = ( -1.0000000  0.0000000 -0.0000000 )
                  (  0.0000000 -1.0000000 -0.0000000 )
                  (  0.0000000 -0.0000000 -1.0000000 )


      isym = 26     inv. 180 deg rotation - cart. axis [0,0,1]   

 cryst.   s(26) = (     0         -1          1      )    f =(  0.0000000 )
                  (    -1          0          1      )       (  0.0000000 )
                  (     0          0          1      )       (  0.5000000 )

 cart.    s(26) = (  1.0000000 -0.0000000 -0.0000000 )    f =(  0.3535534 )
                  ( -0.0000000  1.0000000 -0.0000000 )       (  0.3535534 )
                  ( -0.0000000  0.0000000 -1.0000000 )       (  0.0000000 )


      isym = 27     inv. 180 deg rotation - cart. axis [0,1,0]   

 cryst.   s(27) = (     0          1         -1      )    f =(  0.0000000 )
                  (     0          1          0      )       (  0.5000000 )
                  (    -1          1          0      )       (  0.0000000 )

 cart.    s(27) = (  1.0000000  0.0000000  0.0000000 )    f =(  0.3535534 )
                  ( -0.0000000 -1.0000000  0.0000000 )       (  0.0000000 )
                  ( -0.0000000 -0.0000000  1.0000000 )       (  0.3535534 )


      isym = 28     inv. 180 deg rotation - cart. axis [1,0,0]   

 cryst.   s(28) = (     1          0          0      )    f =(  0.5000000 )
                  (     1          0         -1      )       (  0.0000000 )
                  (     1         -1          0      )       (  0.0000000 )

 cart.    s(28) = ( -1.0000000 -0.0000000  0.0000000 )    f =(  0.0000000 )
                  (  0.0000000  1.0000000  0.0000000 )       (  0.3535534 )
                  (  0.0000000  0.0000000  1.0000000 )       (  0.3535534 )


      isym = 29     inv. 180 deg rotation - cart. axis [1,1,0]   

 cryst.   s(29) = (     1          0         -1      )    f =(  0.0000000 )
                  (     0          1         -1      )       (  0.0000000 )
                  (     0          0         -1      )       (  0.5000000 )

 cart.    s(29) = (  0.0000000 -1.0000000  0.0000000 )    f =(  0.3535534 )
                  ( -1.0000000  0.0000000  0.0000000 )       (  0.3535534 )
                  ( -0.0000000  0.0000000  1.0000000 )       (  0.0000000 )


      isym = 30     inv. 180 deg rotation - cart. axis [1,-1,0]  

 cryst.   s(30) = (     0          1          0      )
                  (     1          0          0      )
                  (     0          0          1      )

 cart.    s(30) = ( -0.0000000  1.0000000  0.0000000 )
                  (  1.0000000 -0.0000000  0.0000000 )
                  (  0.0000000 -0.0000000  1.0000000 )


      isym = 31     inv.  90 deg rotation - cart. axis [0,0,-1]  

 cryst.   s(31) = (     0         -1          0      )    f =(  0.0000000 )
                  (     0         -1          1      )       (  0.5000000 )
                  (     1         -1          0      )       (  0.0000000 )

 cart.    s(31) = ( -0.0000000 -1.0000000 -0.0000000 )    f =(  0.3535534 )
                  (  1.0000000  0.0000000 -0.0000000 )       (  0.0000000 )
                  (  0.0000000  0.0000000 -1.0000000 )       (  0.3535534 )


      isym = 32     inv.  90 deg rotation - cart. axis [0,0,1]   

 cryst.   s(32) = (    -1          0          1      )    f =(  0.5000000 )
                  (    -1          0          0      )       (  0.0000000 )
                  (    -1          1          0      )       (  0.0000000 )

 cart.    s(32) = (  0.0000000  1.0000000 -0.0000000 )    f =(  0.0000000 )
                  ( -1.0000000 -0.0000000 -0.0000000 )       (  0.3535534 )
                  ( -0.0000000 -0.0000000 -1.0000000 )       (  0.3535534 )


      isym = 33     inv. 180 deg rotation - cart. axis [1,0,1]   

 cryst.   s(33) = (     1         -1          0      )    f =(  0.0000000 )
                  (     0         -1          0      )       (  0.5000000 )
                  (     0         -1          1      )       (  0.0000000 )

 cart.    s(33) = ( -0.0000000 -0.0000000 -1.0000000 )    f =(  0.3535534 )
                  ( -0.0000000  1.0000000  0.0000000 )       (  0.0000000 )
                  ( -1.0000000  0.0000000  0.0000000 )       (  0.3535534 )


      isym = 34     inv. 180 deg rotation - cart. axis [-1,0,1]  

 cryst.   s(34) = (     0          0          1      )
                  (     0          1          0      )
                  (     1          0          0      )

 cart.    s(34) = (  0.0000000 -0.0000000  1.0000000 )
                  (  0.0000000  1.0000000 -0.0000000 )
                  (  1.0000000  0.0000000 -0.0000000 )


      isym = 35     inv.  90 deg rotation - cart. axis [0,1,0]   

 cryst.   s(35) = (     0          0         -1      )    f =(  0.0000000 )
                  (     1          0         -1      )       (  0.0000000 )
                  (     0          1         -1      )       (  0.5000000 )

 cart.    s(35) = (  0.0000000  0.0000000 -1.0000000 )    f =(  0.3535534 )
                  (  0.0000000 -1.0000000  0.0000000 )       (  0.3535534 )
                  (  1.0000000 -0.0000000  0.0000000 )       (  0.0000000 )


      isym = 36     inv.  90 deg rotation - cart. axis [0,-1,0]  

 cryst.   s(36) = (    -1          1          0      )    f =(  0.5000000 )
                  (    -1          0          1      )       (  0.0000000 )
                  (    -1          0          0      )       (  0.0000000 )

 cart.    s(36) = ( -0.0000000  0.0000000  1.0000000 )    f =(  0.0000000 )
                  ( -0.0000000 -1.0000000 -0.0000000 )       (  0.3535534 )
                  ( -1.0000000 -0.0000000 -0.0000000 )       (  0.3535534 )


      isym = 37     inv. 180 deg rotation - cart. axis [0,1,1]   

 cryst.   s(37) = (    -1          0          0      )    f =(  0.5000000 )
                  (    -1          1          0      )       (  0.0000000 )
                  (    -1          0          1      )       (  0.0000000 )

 cart.    s(37) = (  1.0000000 -0.0000000  0.0000000 )    f =(  0.0000000 )
                  ( -0.0000000 -0.0000000 -1.0000000 )       (  0.3535534 )
                  ( -0.0000000 -1.0000000 -0.0000000 )       (  0.3535534 )


      isym = 38     inv. 180 deg rotation - cart. axis [0,1,-1]  

 cryst.   s(38) = (     1          0          0      )
                  (     0          0          1      )
                  (     0          1          0      )

 cart.    s(38) = (  1.0000000  0.0000000 -0.0000000 )
                  ( -0.0000000  0.0000000  1.0000000 )
                  ( -0.0000000  1.0000000  0.0000000 )


      isym = 39     inv.  90 deg rotation - cart. axis [-1,0,0]  

 cryst.   s(39) = (     0          1         -1      )    f =(  0.0000000 )
                  (     0          0         -1      )       (  0.0000000 )
                  (     1          0         -1      )       (  0.5000000 )

 cart.    s(39) = ( -1.0000000  0.0000000  0.0000000 )    f =(  0.3535534 )
                  (  0.0000000  0.0000000 -1.0000000 )       (  0.3535534 )
                  (  0.0000000  1.0000000 -0.0000000 )       (  0.0000000 )


      isym = 40     inv.  90 deg rotation - cart. axis [1,0,0]   

 cryst.   s(40) = (     0         -1          1      )    f =(  0.0000000 )
                  (     1         -1          0      )       (  0.5000000 )
                  (     0         -1          0      )       (  0.0000000 )

 cart.    s(40) = ( -1.0000000 -0.0000000 -0.0000000 )    f =(  0.3535534 )
                  (  0.0000000 -0.0000000  1.0000000 )       (  0.0000000 )
                  (  0.0000000 -1.0000000  0.0000000 )       (  0.3535534 )


      isym = 41     inv. 120 deg rotation - cart. axis [-1,-1,-1]

 cryst.   s(41) = (     0          0         -1      )
                  (    -1          0          0      )
                  (     0         -1          0      )

 cart.    s(41) = ( -0.0000000 -1.0000000  0.0000000 )
                  ( -0.0000000  0.0000000 -1.0000000 )
                  ( -1.0000000  0.0000000 -0.0000000 )


      isym = 42     inv. 120 deg rotation - cart. axis [-1,1,1]  

 cryst.   s(42) = (    -1          1          0      )    f =(  0.0000000 )
                  (     0          1         -1      )       (  0.5000000 )
                  (     0          1          0      )       (  0.0000000 )

 cart.    s(42) = (  0.0000000  1.0000000  0.0000000 )    f =(  0.3535534 )
                  (  0.0000000 -0.0000000 -1.0000000 )       (  0.0000000 )
                  (  1.0000000 -0.0000000 -0.0000000 )       (  0.3535534 )


      isym = 43     inv. 120 deg rotation - cart. axis [1,1,-1]  

 cryst.   s(43) = (     1         -1          0      )    f =(  0.5000000 )
                  (     1          0          0      )       (  0.0000000 )
                  (     1          0         -1      )       (  0.0000000 )

 cart.    s(43) = (  0.0000000 -1.0000000 -0.0000000 )    f =(  0.0000000 )
                  (  0.0000000  0.0000000  1.0000000 )       (  0.3535534 )
                  (  1.0000000  0.0000000  0.0000000 )       (  0.3535534 )


      isym = 44     inv. 120 deg rotation - cart. axis [1,-1,1]  

 cryst.   s(44) = (     0          0          1      )    f =(  0.0000000 )
                  (     0         -1          1      )       (  0.0000000 )
                  (    -1          0          1      )       (  0.5000000 )

 cart.    s(44) = ( -0.0000000  1.0000000 -0.0000000 )    f =(  0.3535534 )
                  ( -0.0000000 -0.0000000  1.0000000 )       (  0.3535534 )
                  ( -1.0000000 -0.0000000  0.0000000 )       (  0.0000000 )


      isym = 45     inv. 120 deg rotation - cart. axis [1,1,1]   

 cryst.   s(45) = (     0         -1          0      )
                  (     0          0         -1      )
                  (    -1          0          0      )

 cart.    s(45) = (  0.0000000 -0.0000000 -1.0000000 )
                  ( -1.0000000 -0.0000000  0.0000000 )
                  ( -0.0000000 -1.0000000  0.0000000 )


      isym = 46     inv. 120 deg rotation - cart. axis [-1,1,-1] 

 cryst.   s(46) = (     1          0         -1      )    f =(  0.5000000 )
                  (     1         -1          0      )       (  0.0000000 )
                  (     1          0          0      )       (  0.0000000 )

 cart.    s(46) = ( -0.0000000  0.0000000 -1.0000000 )    f =(  0.0000000 )
                  (  1.0000000  0.0000000  0.0000000 )       (  0.3535534 )
                  (  0.0000000  1.0000000  0.0000000 )       (  0.3535534 )


      isym = 47     inv. 120 deg rotation - cart. axis [1,-1,-1] 

 cryst.   s(47) = (    -1          0          1      )    f =(  0.0000000 )
                  (     0          0          1      )       (  0.0000000 )
                  (     0         -1          1      )       (  0.5000000 )

 cart.    s(47) = ( -0.0000000 -0.0000000  1.0000000 )    f =(  0.3535534 )
                  (  1.0000000 -0.0000000 -0.0000000 )       (  0.3535534 )
                  (  0.0000000 -1.0000000 -0.0000000 )       (  0.0000000 )


      isym = 48     inv. 120 deg rotation - cart. axis [-1,-1,1] 

 cryst.   s(48) = (     0          1          0      )    f =(  0.0000000 )
                  (    -1          1          0      )       (  0.5000000 )
                  (     0          1         -1      )       (  0.0000000 )

 cart.    s(48) = (  0.0000000  0.0000000  1.0000000 )    f =(  0.3535534 )
                  ( -1.0000000  0.0000000 -0.0000000 )       (  0.0000000 )
                  ( -0.0000000  1.0000000 -0.0000000 )       (  0.3535534 )


   Cartesian axes

     site n.     atom                  positions (alat units)
         1           Si  tau(   1) = (   0.1767767   0.1767767   0.1767767  )
         2           Si  tau(   2) = (  -0.1767767  -0.1767767  -0.1767767  )

   Crystallographic axes

     site n.     atom                  positions (cryst. coord.)
         1           Si  tau(   1) = (  0.1250000  0.1250000  0.1250000  )
         2           Si  tau(   2) = ( -0.1250000 -0.1250000 -0.1250000  )

     number of k points=    56
                       cart. coord. in units 2pi/alat
        k(    1) = (   0.0000000   0.0000000   0.0000000), wk =   0.0007513
        k(    2) = (   0.0642824   0.0642824  -0.0642824), wk =   0.0060105
        k(    3) = (   0.1285649   0.1285649  -0.1285649), wk =   0.0060105
        k(    4) = (   0.1928473   0.1928473  -0.1928473), wk =   0.0060105
        k(    5) = (   0.2571297   0.2571297  -0.2571297), wk =   0.0060105
        k(    6) = (   0.3214122   0.3214122  -0.3214122), wk =   0.0060105
        k(    7) = (   0.1285649   0.0000000  -0.0000000), wk =   0.0045079
        k(    8) = (   0.1928473   0.0642824  -0.0642824), wk =   0.0180316
        k(    9) = (   0.2571297   0.1285649  -0.1285649), wk =   0.0180316
        k(   10) = (   0.3214122   0.1928473  -0.1928473), wk =   0.0180316
        k(   11) = (   0.3856946   0.2571297  -0.2571297), wk =   0.0180316
        k(   12) = (  -0.2571297  -0.3856946   0.3856946), wk =   0.0180316
        k(   13) = (  -0.1928473  -0.3214122   0.3214122), wk =   0.0180316
        k(   14) = (  -0.1285649  -0.2571297   0.2571297), wk =   0.0180316
        k(   15) = (  -0.0642824  -0.1928473   0.1928473), wk =   0.0180316
        k(   16) = (  -0.0000000  -0.1285649   0.1285649), wk =   0.0090158
        k(   17) = (   0.2571297   0.0000000  -0.0000000), wk =   0.0045079
        k(   18) = (   0.3214122   0.0642824  -0.0642824), wk =   0.0180316
        k(   19) = (   0.3856946   0.1285649  -0.1285649), wk =   0.0180316
        k(   20) = (   0.4499770   0.1928473  -0.1928473), wk =   0.0180316
        k(   21) = (  -0.1928473  -0.4499770   0.4499770), wk =   0.0180316
        k(   22) = (  -0.1285649  -0.3856946   0.3856946), wk =   0.0180316
        k(   23) = (  -0.0642824  -0.3214122   0.3214122), wk =   0.0180316
        k(   24) = (   0.0000000  -0.2571297   0.2571297), wk =   0.0090158
        k(   25) = (   0.3856946   0.0000000  -0.0000000), wk =   0.0045079
        k(   26) = (   0.4499770   0.0642824  -0.0642824), wk =   0.0180316
        k(   27) = (   0.5142595   0.1285649  -0.1285649), wk =   0.0180316
        k(   28) = (  -0.1285649  -0.5142595   0.5142595), wk =   0.0180316
        k(   29) = (  -0.0642824  -0.4499770   0.4499770), wk =   0.0180316
        k(   30) = (  -0.0000000  -0.3856946   0.3856946), wk =   0.0090158
        k(   31) = (   0.5142595   0.0000000  -0.0000000), wk =   0.0045079
        k(   32) = (   0.5785419   0.0642824  -0.0642824), wk =   0.0180316
        k(   33) = (  -0.0642824  -0.5785419   0.5785419), wk =   0.0180316
        k(   34) = (  -0.0000000  -0.5142595   0.5142595), wk =   0.0090158
        k(   35) = (   0.6428243  -0.0000000   0.0000000), wk =   0.0045079
        k(   36) = (  -0.0000000  -0.6428243   0.6428243), wk =   0.0090158
        k(   37) = (   0.2571297   0.1285649   0.0000000), wk =   0.0180316
        k(   38) = (   0.3214122   0.1928473  -0.0642824), wk =   0.0360631
        k(   39) = (   0.3856946   0.2571297  -0.1285649), wk =   0.0360631
        k(   40) = (  -0.2571297  -0.3856946   0.5142595), wk =   0.0360631
        k(   41) = (   0.3856946   0.1285649  -0.0000000), wk =   0.0180316
        k(   42) = (   0.4499770   0.1928473  -0.0642824), wk =   0.0360631
        k(   43) = (  -0.1928473  -0.4499770   0.5785419), wk =   0.0360631
        k(   44) = (  -0.1285649  -0.3856946   0.5142595), wk =   0.0360631
        k(   45) = (  -0.0642824  -0.3214122   0.4499770), wk =   0.0360631
        k(   46) = (   0.0000000  -0.2571297   0.3856946), wk =   0.0180316
        k(   47) = (   0.5142595   0.1285649   0.0000000), wk =   0.0180316
        k(   48) = (  -0.1285649  -0.5142595   0.6428243), wk =   0.0360631
        k(   49) = (  -0.0642824  -0.4499770   0.5785419), wk =   0.0360631
        k(   50) = (   0.0000000  -0.3856946   0.5142595), wk =   0.0180316
        k(   51) = (  -0.0642824  -0.5785419   0.7071068), wk =   0.0180316
        k(   52) = (  -0.0000000  -0.5142595   0.6428243), wk =   0.0180316
        k(   53) = (  -0.1928473  -0.4499770   0.7071068), wk =   0.0180316
        k(   54) = (  -0.1285649  -0.3856946   0.6428243), wk =   0.0360631
        k(   55) = (  -0.0642824  -0.4499770   0.7071068), wk =   0.0180316
        k(   56) = (   0.0000000  -0.3856946   0.6428243), wk =   0.0180316

                       cryst. coord.
        k(    1) = (   0.0000000   0.0000000   0.0000000), wk =   0.0007513
        k(    2) = (   0.0000000   0.0000000   0.0909091), wk =   0.0060105
        k(    3) = (   0.0000000   0.0000000   0.1818182), wk =   0.0060105
        k(    4) = (   0.0000000   0.0000000   0.2727273), wk =   0.0060105
        k(    5) = (   0.0000000   0.0000000   0.3636364), wk =   0.0060105
        k(    6) = (  -0.0000000  -0.0000000   0.4545455), wk =   0.0060105
        k(    7) = (   0.0000000   0.0909091   0.0909091), wk =   0.0045079
        k(    8) = (   0.0000000   0.0909091   0.1818182), wk =   0.0180316
        k(    9) = (  -0.0000000   0.0909091   0.2727273), wk =   0.0180316
        k(   10) = (  -0.0000000   0.0909091   0.3636364), wk =   0.0180316
        k(   11) = (   0.0000000   0.0909091   0.4545455), wk =   0.0180316
        k(   12) = (  -0.0000000   0.0909091  -0.4545455), wk =   0.0180316
        k(   13) = (   0.0000000   0.0909091  -0.3636364), wk =   0.0180316
        k(   14) = (  -0.0000000   0.0909091  -0.2727273), wk =   0.0180316
        k(   15) = (  -0.0000000   0.0909091  -0.1818182), wk =   0.0180316
        k(   16) = (   0.0000000   0.0909091  -0.0909091), wk =   0.0090158
        k(   17) = (   0.0000000   0.1818182   0.1818182), wk =   0.0045079
        k(   18) = (  -0.0000000   0.1818182   0.2727273), wk =   0.0180316
        k(   19) = (   0.0000000   0.1818182   0.3636364), wk =   0.0180316
        k(   20) = (  -0.0000000   0.1818182   0.4545455), wk =   0.0180316
        k(   21) = (  -0.0000000   0.1818182  -0.4545455), wk =   0.0180316
        k(   22) = (   0.0000000   0.1818182  -0.3636364), wk =   0.0180316
        k(   23) = (   0.0000000   0.1818182  -0.2727273), wk =   0.0180316
        k(   24) = (   0.0000000   0.1818182  -0.1818182), wk =   0.0090158
        k(   25) = (  -0.0000000   0.2727273   0.2727273), wk =   0.0045079
        k(   26) = (   0.0000000   0.2727273   0.3636364), wk =   0.0180316
        k(   27) = (  -0.0000000   0.2727273   0.4545455), wk =   0.0180316
        k(   28) = (  -0.0000000   0.2727273  -0.4545455), wk =   0.0180316
        k(   29) = (  -0.0000000   0.2727273  -0.3636364), wk =   0.0180316
        k(   30) = (  -0.0000000   0.2727273  -0.2727273), wk =   0.0090158
        k(   31) = (   0.0000000   0.3636364   0.3636364), wk =   0.0045079
        k(   32) = (  -0.0000000   0.3636364   0.4545455), wk =   0.0180316
        k(   33) = (   0.0000000   0.3636364  -0.4545455), wk =   0.0180316
        k(   34) = (  -0.0000000   0.3636364  -0.3636364), wk =   0.0090158
        k(   35) = (   0.0000000   0.4545455   0.4545455), wk =   0.0045079
        k(   36) = (   0.0000000   0.4545455  -0.4545455), wk =   0.0090158
        k(   37) = (   0.0909091   0.1818182   0.2727273), wk =   0.0180316
        k(   38) = (   0.0909091   0.1818182   0.3636364), wk =   0.0360631
        k(   39) = (   0.0909091   0.1818182   0.4545455), wk =   0.0360631
        k(   40) = (   0.0909091   0.1818182  -0.4545455), wk =   0.0360631
        k(   41) = (   0.0909091   0.2727273   0.3636364), wk =   0.0180316
        k(   42) = (   0.0909091   0.2727273   0.4545455), wk =   0.0360631
        k(   43) = (   0.0909091   0.2727273  -0.4545455), wk =   0.0360631
        k(   44) = (   0.0909091   0.2727273  -0.3636364), wk =   0.0360631
        k(   45) = (   0.0909091   0.2727273  -0.2727273), wk =   0.0360631
        k(   46) = (   0.0909091   0.2727273  -0.1818182), wk =   0.0180316
        k(   47) = (   0.0909091   0.3636364   0.4545455), wk =   0.0180316
        k(   48) = (   0.0909091   0.3636364  -0.4545455), wk =   0.0360631
        k(   49) = (   0.0909091   0.3636364  -0.3636364), wk =   0.0360631
        k(   50) = (   0.0909091   0.3636364  -0.2727273), wk =   0.0180316
        k(   51) = (   0.0909091   0.4545455  -0.4545455), wk =   0.0180316
        k(   52) = (   0.0909091   0.4545455  -0.3636364), wk =   0.0180316
        k(   53) = (   0.1818182   0.3636364  -0.4545455), wk =   0.0180316
        k(   54) = (   0.1818182   0.3636364  -0.3636364), wk =   0.0360631
        k(   55) = (   0.1818182   0.4545455  -0.3636364), wk =   0.0180316
        k(   56) = (   0.1818182   0.4545455  -0.2727273), wk =   0.0180316

     Dense  grid:    16889 G-vectors     FFT dimensions: (  36,  36,  36)

     Dynamical RAM for                 wfc:       0.02 MB

     Dynamical RAM for     wfc (w. buffer):       1.11 MB

     Dynamical RAM for           str. fact:       0.01 MB

     Dynamical RAM for           local pot:       0.00 MB

     Dynamical RAM for          nlocal pot:       0.03 MB

     Dynamical RAM for                qrad:       1.44 MB

     Dynamical RAM for          rho,v,vnew:       0.20 MB

     Dynamical RAM for               rhoin:       0.07 MB

     Dynamical RAM for            rho*nmix:       0.41 MB

     Dynamical RAM for           G-vectors:       0.03 MB

     Dynamical RAM for          h,s,v(r/c):       0.01 MB

     Dynamical RAM for          <psi|beta>:       0.01 MB

     Dynamical RAM for                 psi:       0.08 MB

     Dynamical RAM for                hpsi:       0.08 MB

     Dynamical RAM for                spsi:       0.08 MB

     Dynamical RAM for      wfcinit/wfcrot:       0.04 MB

     Dynamical RAM for           addusdens:       1.21 MB

     Dynamical RAM for          addusforce:       1.23 MB

     Dynamical RAM for         addusstress:       1.31 MB

     Estimated static dynamical RAM per process >       3.37 MB

     Estimated max dynamical RAM per process >       4.68 MB

     Estimated total dynamical RAM >     187.20 MB

     Initial potential from superposition of free atoms

     starting charge    7.99888, renormalised to    8.00000
     Starting wfcs are   16 randomized atomic wfcs
     Checking if some PAW data can be deallocated... 

     total cpu time spent up to now is        1.6 secs

     Self-consistent Calculation

     iteration #  1     ecut=    60.00 Ry     beta= 0.70
     Davidson diagonalization with overlap
     ethr =  1.00E-02,  avg # of iterations =  3.5

     Threshold (ethr) on eigenvalues was too large:
     Diagonalizing with lowered threshold

     Davidson diagonalization with overlap
     ethr =  7.00E-04,  avg # of iterations =  1.6

     total cpu time spent up to now is        3.8 secs

     total energy              =     -93.48416445 Ry
     Harris-Foulkes estimate   =     -93.49771550 Ry
     estimated scf accuracy    <       0.05555044 Ry

     iteration #  2     ecut=    60.00 Ry     beta= 0.70
     Davidson diagonalization with overlap
     ethr =  6.94E-04,  avg # of iterations =  1.0

     total cpu time spent up to now is        4.6 secs

     total energy              =     -93.48636054 Ry
     Harris-Foulkes estimate   =     -93.48650603 Ry
     estimated scf accuracy    <       0.00234477 Ry

     iteration #  3     ecut=    60.00 Ry     beta= 0.70
     Davidson diagonalization with overlap
     ethr =  2.93E-05,  avg # of iterations =  3.8

     total cpu time spent up to now is        5.8 secs

     total energy              =     -93.48659073 Ry
     Harris-Foulkes estimate   =     -93.48659318 Ry
     estimated scf accuracy    <       0.00004088 Ry

     iteration #  4     ecut=    60.00 Ry     beta= 0.70
     Davidson diagonalization with overlap
     ethr =  5.11E-07,  avg # of iterations =  3.4

     total cpu time spent up to now is        7.0 secs

     total energy              =     -93.48660703 Ry
     Harris-Foulkes estimate   =     -93.48660682 Ry
     estimated scf accuracy    <       0.00000016 Ry

     iteration #  5     ecut=    60.00 Ry     beta= 0.70
     Davidson diagonalization with overlap
     ethr =  2.06E-09,  avg # of iterations =  3.4

     total cpu time spent up to now is        8.2 secs

     total energy              =     -93.48660729 Ry
     Harris-Foulkes estimate   =     -93.48660728 Ry
     estimated scf accuracy    <       0.00000001 Ry

     iteration #  6     ecut=    60.00 Ry     beta= 0.70
     Davidson diagonalization with overlap
     ethr =  1.28E-10,  avg # of iterations =  2.2

     total cpu time spent up to now is        9.1 secs

     total energy              =     -93.48660729 Ry
     Harris-Foulkes estimate   =     -93.48660729 Ry
     estimated scf accuracy    <          1.7E-10 Ry

     iteration #  7     ecut=    60.00 Ry     beta= 0.70
     Davidson diagonalization with overlap
     ethr =  2.06E-12,  avg # of iterations =  3.0

     total cpu time spent up to now is       10.3 secs

     total energy              =     -93.48660729 Ry
     Harris-Foulkes estimate   =     -93.48660729 Ry
     estimated scf accuracy    <          1.9E-11 Ry

     iteration #  8     ecut=    60.00 Ry     beta= 0.70
     Davidson diagonalization with overlap
     ethr =  2.42E-13,  avg # of iterations =  2.0

     total cpu time spent up to now is       11.2 secs

     End of self-consistent calculation

          k = 0.0000 0.0000 0.0000 (  2109 PWs)   bands (ev):

    -5.7616  -5.7616   6.2003   6.2003   6.2003   6.2003   6.2003   6.2003
     8.7631   8.7631   8.7631   8.7631

     occupation numbers 
     1.0000   1.0000   1.0000   1.0000   1.0000   1.0000   1.0000   1.0000
     0.0000   0.0000   0.0000   0.0000

          k = 0.0643 0.0643-0.0643 (  2106 PWs)   bands (ev):

    -5.6534  -5.6534   5.2125   5.2125   6.0323   6.0323   6.0323   6.0323
     8.7932   8.7933   9.0104   9.0104

     occupation numbers 
     1.0000   1.0000   1.0000   1.0000   1.0000   1.0000   1.0000   1.0000
     0.0000   0.0000   0.0000   0.0000

          k = 0.1286 0.1286-0.1286 (  2112 PWs)   bands (ev):

    -5.3329  -5.3329   3.5321   3.5321   5.6906   5.6906   5.6906   5.6906
     8.4904   8.4904   9.4848   9.4848

     occupation numbers 
     1.0000   1.0000   1.0000   1.0000   1.0000   1.0000   1.0000   1.0000
     0.0000   0.0000   0.0000   0.0000

          k = 0.1928 0.1928-0.1928 (  2112 PWs)   bands (ev):

    -4.8166  -4.8166   1.8697   1.8697   5.3663   5.3663   5.3663   5.3663
     8.1466   8.1466   9.7319   9.7319

     occupation numbers 
     1.0000   1.0000   1.0000   1.0000   1.0000   1.0000   1.0000   1.0000
     0.0000   0.0000   0.0000   0.0000

          k = 0.2571 0.2571-0.2571 (  2120 PWs)   bands (ev):

    -4.1555  -4.1555   0.4111   0.4111   5.1343   5.1343   5.1343   5.1343
     7.8877   7.8877   9.6686   9.6686

     occupation numbers 
     1.0000   1.0000   1.0000   1.0000   1.0000   1.0000   1.0000   1.0000
     0.0000   0.0000   0.0000   0.0000

          k = 0.3214 0.3214-0.3214 (  2117 PWs)   bands (ev):

    -3.5436  -3.5436  -0.6070  -0.6070   5.0160   5.0160   5.0160   5.0160
     7.7527   7.7527   9.5586   9.5586

     occupation numbers 
     1.0000   1.0000   1.0000   1.0000   1.0000   1.0000   1.0000   1.0000
     0.0000   0.0000   0.0000   0.0000

          k = 0.1286 0.0000-0.0000 (  2117 PWs)   bands (ev):

    -5.6171  -5.6171   5.3967   5.3967   5.7045   5.7045   5.7045   5.7045
     8.4432   8.4432   9.4363   9.4363

     occupation numbers 
     1.0000   1.0000   1.0000   1.0000   1.0000   1.0000   1.0000   1.0000
     0.0000   0.0000   0.0000   0.0000

          k = 0.1928 0.0643-0.0643 (  2107 PWs)   bands (ev):

    -5.3666  -5.3666   4.0332   4.0332   5.3063   5.3063   5.4924   5.4924
     8.4809   8.4809   9.5067   9.5067

     occupation numbers 
     1.0000   1.0000   1.0000   1.0000   1.0000   1.0000   1.0000   1.0000
     0.0000   0.0000   0.0000   0.0000

          k = 0.2571 0.1286-0.1286 (  2112 PWs)   bands (ev):

    -4.9130  -4.9130   2.4081   2.4081   4.9864   4.9864   5.1190   5.1190
     8.6133   8.6133   9.4943   9.4943

     occupation numbers 
     1.0000   1.0000   1.0000   1.0000   1.0000   1.0000   1.0000   1.0000
     0.0000   0.0000   0.0000   0.0000

          k = 0.3214 0.1928-0.1928 (  2117 PWs)   bands (ev):

    -4.2905  -4.2905   0.8964   0.8964   4.7361   4.7361   4.7994   4.7994
     8.4659   8.4659   9.5200   9.5200

     occupation numbers 
     1.0000   1.0000   1.0000   1.0000   1.0000   1.0000   1.0000   1.0000
     0.0000   0.0000   0.0000   0.0000

          k = 0.3857 0.2571-0.2571 (  2108 PWs)   bands (ev):

    -3.6194  -3.6194  -0.2997  -0.2997   4.4369   4.4369   4.7593   4.7593
     8.3280   8.3280   9.4738   9.4738

     occupation numbers 
     1.0000   1.0000   1.0000   1.0000   1.0000   1.0000   1.0000   1.0000
     0.0000   0.0000   0.0000   0.0000

          k =-0.2571-0.3857 0.3857 (  2116 PWs)   bands (ev):

    -3.3487  -3.3487  -0.7025  -0.7025   4.2582   4.2582   4.8616   4.8616
     8.3038   8.3038   9.5274   9.5274

     occupation numbers 
     1.0000   1.0000   1.0000   1.0000   1.0000   1.0000   1.0000   1.0000
     0.0000   0.0000   0.0000   0.0000

          k =-0.1928-0.3214 0.3214 (  2122 PWs)   bands (ev):

    -3.8335  -3.8335   0.0488   0.0488   4.2212   4.2212   5.0900   5.0900
     8.4067   8.4067   9.7190   9.7190

     occupation numbers 
     1.0000   1.0000   1.0000   1.0000   1.0000   1.0000   1.0000   1.0000
     0.0000   0.0000   0.0000   0.0000

          k =-0.1286-0.2571 0.2571 (  2121 PWs)   bands (ev):

    -4.5142  -4.5142   1.3803   1.3803   4.3419   4.3419   5.4154   5.4154
     8.6245   8.6245   9.7400   9.7400

     occupation numbers 
     1.0000   1.0000   1.0000   1.0000   1.0000   1.0000   1.0000   1.0000
     0.0000   0.0000   0.0000   0.0000

          k =-0.0643-0.1928 0.1928 (  2105 PWs)   bands (ev):

    -5.0866  -5.0866   2.9347   2.9347   4.6384   4.6384   5.7812   5.7812
     8.9208   8.9208   9.4619   9.4620

     occupation numbers 
     1.0000   1.0000   1.0000   1.0000   1.0000   1.0000   1.0000   1.0000
     0.0000   0.0000   0.0000   0.0000

          k =-0.0000-0.1286 0.1286 (  2103 PWs)   bands (ev):

    -5.4741  -5.4741   4.4091   4.4091   5.2039   5.2039   6.0573   6.0573
     9.0601   9.0601   9.1551   9.1551

     occupation numbers 
     1.0000   1.0000   1.0000   1.0000   1.0000   1.0000   1.0000   1.0000
     0.0000   0.0000   0.0000   0.0000

          k = 0.2571 0.0000-0.0000 (  2101 PWs)   bands (ev):

    -5.1863  -5.1863   3.8958   3.8958   4.8707   4.8707   4.8707   4.8707
     7.7942   7.7942  10.3357  10.3357

     occupation numbers 
     1.0000   1.0000   1.0000   1.0000   1.0000   1.0000   1.0000   1.0000
     0.0000   0.0000   0.0000   0.0000

          k = 0.3214 0.0643-0.0643 (  2110 PWs)   bands (ev):

    -4.7990  -4.7990   2.7315   2.7315   4.4536   4.4536   4.5265   4.5265
     7.8474   7.8474   9.9081   9.9081

     occupation numbers 
     1.0000   1.0000   1.0000   1.0000   1.0000   1.0000   1.0000   1.0000
     0.0000   0.0000   0.0000   0.0000

          k = 0.3857 0.1286-0.1286 (  2111 PWs)   bands (ev):

    -4.2273  -4.2273   1.3534   1.3534   3.9212   3.9212   4.3295   4.3295
     8.0836   8.0836  10.2698  10.2698

     occupation numbers 
     1.0000   1.0000   1.0000   1.0000   1.0000   1.0000   1.0000   1.0000
     0.0000   0.0000   0.0000   0.0000

          k = 0.4500 0.1928-0.1928 (  2113 PWs)   bands (ev):

    -3.5459  -3.5459   0.1111   0.1111   3.4434   3.4434   4.2975   4.2975
     8.1227   8.1227  10.6583  10.6583

     occupation numbers 
     1.0000   1.0000   1.0000   1.0000   1.0000   1.0000   1.0000   1.0000
     0.0000   0.0000   0.0000   0.0000

          k =-0.1928-0.4500 0.4500 (  2117 PWs)   bands (ev):

    -3.0614  -3.0614  -0.6017  -0.6017   3.1064   3.1064   4.4293   4.4293
     8.2243   8.2243  10.5277  10.5277

     occupation numbers 
     1.0000   1.0000   1.0000   1.0000   1.0000   1.0000   1.0000   1.0000
     0.0000   0.0000   0.0000   0.0000

          k =-0.1286-0.3857 0.3857 (  2118 PWs)   bands (ev):

    -3.3478  -3.3478  -0.1886  -0.1886   2.9518   2.9518   4.7087   4.7087
     8.4803   8.4803  10.5152  10.5152

     occupation numbers 
     1.0000   1.0000   1.0000   1.0000   1.0000   1.0000   1.0000   1.0000
     0.0000   0.0000   0.0000   0.0000

          k =-0.0643-0.3214 0.3214 (  2117 PWs)   bands (ev):

    -4.0211  -4.0211   0.9326   0.9326   3.0316   3.0316   5.0976   5.0976
     8.8538   8.8538  10.4343  10.4344

     occupation numbers 
     1.0000   1.0000   1.0000   1.0000   1.0000   1.0000   1.0000   1.0000
     0.0000   0.0000   0.0000   0.0000

          k = 0.0000-0.2571 0.2571 (  2121 PWs)   bands (ev):

    -4.6385  -4.6385   2.1283   2.1283   3.5142   3.5142   5.5134   5.5134
     9.1906   9.1906   9.9468   9.9468

     occupation numbers 
     1.0000   1.0000   1.0000   1.0000   1.0000   1.0000   1.0000   1.0000
     0.0000   0.0000   0.0000   0.0000

          k = 0.3857 0.0000-0.0000 (  2113 PWs)   bands (ev):

    -4.4776  -4.4776   2.2723   2.2723   4.1475   4.1475   4.1475   4.1475
     7.2008   7.2008   8.9989   8.9989

     occupation numbers 
     1.0000   1.0000   1.0000   1.0000   1.0000   1.0000   1.0000   1.0000
     0.0000   0.0000   0.0000   0.0000

          k = 0.4500 0.0643-0.0643 (  2108 PWs)   bands (ev):

    -3.9636  -3.9636   1.3145   1.3145   3.6086   3.6086   3.9154   3.9154
     7.3333   7.3333   8.7085   8.7085

     occupation numbers 
     1.0000   1.0000   1.0000   1.0000   1.0000   1.0000   1.0000   1.0000
     0.0000   0.0000   0.0000   0.0000

          k = 0.5143 0.1286-0.1286 (  2126 PWs)   bands (ev):

    -3.3029  -3.3029   0.2814   0.2814   2.8796   2.8796   3.8542   3.8542
     7.5308   7.5308   9.4675   9.4675

     occupation numbers 
     1.0000   1.0000   1.0000   1.0000   1.0000   1.0000   1.0000   1.0000
     0.0000   0.0000   0.0000   0.0000

          k =-0.1286-0.5143 0.5143 (  2124 PWs)   bands (ev):

    -2.6866  -2.6866  -0.5244  -0.5244   2.3051   2.3051   3.9673   3.9673
     7.6654   7.6654  10.9480  10.9480

     occupation numbers 
     1.0000   1.0000   1.0000   1.0000   1.0000   1.0000   1.0000   1.0000
     0.0000   0.0000   0.0000   0.0000

          k =-0.0643-0.4500 0.4500 (  2125 PWs)   bands (ev):

    -2.7425  -2.7425  -0.4450  -0.4450   2.0185   2.0185   4.2428   4.2428
     7.9574   7.9574  12.0231  12.0242

     occupation numbers 
     1.0000   1.0000   1.0000   1.0000   1.0000   1.0000   1.0000   1.0000
     0.0000   0.0000   0.0000   0.0000

          k =-0.0000-0.3857 0.3857 (  2129 PWs)   bands (ev):

    -3.3791  -3.3791   0.3172   0.3172   2.1790   2.1790   4.6468   4.6468
     8.4066   8.4066  11.4065  11.4066

     occupation numbers 
     1.0000   1.0000   1.0000   1.0000   1.0000   1.0000   1.0000   1.0000
     0.0000   0.0000   0.0000   0.0000

          k = 0.5143 0.0000-0.0000 (  2112 PWs)   bands (ev):

    -3.5067  -3.5067   0.6514   0.6514   3.6399   3.6399   3.6399   3.6399
     6.8412   6.8412   7.8576   7.8576

     occupation numbers 
     1.0000   1.0000   1.0000   1.0000   1.0000   1.0000   1.0000   1.0000
     0.0000   0.0000   0.0000   0.0000

          k = 0.5785 0.0643-0.0643 (  2132 PWs)   bands (ev):

    -2.8838  -2.8838  -0.1649  -0.1649   3.1027   3.1027   3.5346   3.5346
     7.0488   7.0488   7.8752   7.8752

     occupation numbers 
     1.0000   1.0000   1.0000   1.0000   1.0000   1.0000   1.0000   1.0000
     0.0000   0.0000   0.0000   0.0000

          k =-0.0643-0.5785 0.5785 (  2126 PWs)   bands (ev):

    -2.2077  -2.2077  -0.8835  -0.8835   2.3205   2.3205   3.6081   3.6081
     7.2177   7.2177   9.0666   9.0666

     occupation numbers 
     1.0000   1.0000   1.0000   1.0000   1.0000   1.0000   1.0000   1.0000
     0.0000   0.0000   0.0000   0.0000

          k =-0.0000-0.5143 0.5143 (  2129 PWs)   bands (ev):

    -2.1417  -2.1417  -0.9169  -0.9169   1.8333   1.8333   3.8532   3.8532
     7.4970   7.4970  10.7922  10.7922

     occupation numbers 
     1.0000   1.0000   1.0000   1.0000   1.0000   1.0000   1.0000   1.0000
     0.0000   0.0000   0.0000   0.0000

          k = 0.6428-0.0000 0.0000 (  2120 PWs)   bands (ev):

    -2.2994  -2.2994  -0.8949  -0.8949   3.3805   3.3805   3.3805   3.3805
     6.7983   6.7983   7.1243   7.1243

     occupation numbers 
     1.0000   1.0000   1.0000   1.0000   1.0000   1.0000   1.0000   1.0000
     0.0000   0.0000   0.0000   0.0000

          k =-0.0000-0.6428 0.6428 (  2123 PWs)   bands (ev):

    -1.6521  -1.6521  -1.5405  -1.5405   2.9363   2.9363   3.4058   3.4058
     6.9793   6.9793   7.5664   7.5664

     occupation numbers 
     1.0000   1.0000   1.0000   1.0000   1.0000   1.0000   1.0000   1.0000
     0.0000   0.0000   0.0000   0.0000

          k = 0.2571 0.1286 0.0000 (  2102 PWs)   bands (ev):

    -5.0482  -5.0482   3.1745   3.1745   4.3617   4.3617   5.3774   5.3774
     8.5386   8.5386   9.8350   9.8350

     occupation numbers 
     1.0000   1.0000   1.0000   1.0000   1.0000   1.0000   1.0000   1.0000
     0.0000   0.0000   0.0000   0.0000

          k = 0.3214 0.1928-0.0643 (  2113 PWs)   bands (ev):

    -4.5347  -4.5347   1.8506   1.8506   3.7996   3.7996   5.0567   5.0567
     8.8546   8.8546   9.7762   9.7762

     occupation numbers 
     1.0000   1.0000   1.0000   1.0000   1.0000   1.0000   1.0000   1.0000
     0.0000   0.0000   0.0000   0.0000

          k = 0.3857 0.2571-0.1286 (  2117 PWs)   bands (ev):

    -3.8752  -3.8752   0.5028   0.5028   3.5440   3.5440   4.7111   4.7111
     8.8948   8.8948   9.5549   9.5549

     occupation numbers 
     1.0000   1.0000   1.0000   1.0000   1.0000   1.0000   1.0000   1.0000
     0.0000   0.0000   0.0000   0.0000

          k =-0.2571-0.3857 0.5143 (  2131 PWs)   bands (ev):

    -3.2588  -3.2588  -0.4821  -0.4821   3.4454   3.4454   4.4993   4.4993
     8.8774   8.8774   9.3407   9.3407

     occupation numbers 
     1.0000   1.0000   1.0000   1.0000   1.0000   1.0000   1.0000   1.0000
     0.0000   0.0000   0.0000   0.0000

          k = 0.3857 0.1286-0.0000 (  2108 PWs)   bands (ev):

    -4.3493  -4.3493   1.8855   1.8855   3.6444   3.6444   4.3656   4.3656
     7.9740   7.9740   9.5040   9.5040

     occupation numbers 
     1.0000   1.0000   1.0000   1.0000   1.0000   1.0000   1.0000   1.0000
     0.0000   0.0000   0.0000   0.0000

          k = 0.4500 0.1928-0.0643 (  2122 PWs)   bands (ev):

    -3.7307  -3.7307   0.8017   0.8017   3.0689   3.0689   4.0503   4.0503
     8.3346   8.3346   9.9173   9.9173

     occupation numbers 
     1.0000   1.0000   1.0000   1.0000   1.0000   1.0000   1.0000   1.0000
     0.0000   0.0000   0.0000   0.0000

          k =-0.1928-0.4500 0.5785 (  2118 PWs)   bands (ev):

    -3.0559  -3.0559  -0.2122  -0.2122   2.6839   2.6839   3.8940   3.8940
     8.4673   8.4673  10.4738  10.4738

     occupation numbers 
     1.0000   1.0000   1.0000   1.0000   1.0000   1.0000   1.0000   1.0000
     0.0000   0.0000   0.0000   0.0000

          k =-0.1286-0.3857 0.5143 (  2126 PWs)   bands (ev):

    -2.7878  -2.7878  -0.5635  -0.5635   2.4531   2.4531   3.9841   3.9841
     8.6822   8.6822  10.2104  10.2104

     occupation numbers 
     1.0000   1.0000   1.0000   1.0000   1.0000   1.0000   1.0000   1.0000
     0.0000   0.0000   0.0000   0.0000

          k =-0.0643-0.3214 0.4500 (  2123 PWs)   bands (ev):

    -3.2961  -3.2961   0.1293   0.1293   2.4409   2.4409   4.2811   4.2811
     9.0478   9.0478  10.0186  10.0186

     occupation numbers 
     1.0000   1.0000   1.0000   1.0000   1.0000   1.0000   1.0000   1.0000
     0.0000   0.0000   0.0000   0.0000

          k = 0.0000-0.2571 0.3857 (  2115 PWs)   bands (ev):

    -3.9732  -3.9732   1.1145   1.1145   2.8180   2.8180   4.6977   4.6977
     9.4938   9.4938   9.6024   9.6024

     occupation numbers 
     1.0000   1.0000   1.0000   1.0000   1.0000   1.0000   1.0000   1.0000
     0.0000   0.0000   0.0000   0.0000

          k = 0.5143 0.1286 0.0000 (  2112 PWs)   bands (ev):

    -3.3971  -3.3971   0.5141   0.5141   3.1678   3.1678   3.5602   3.5602
     7.6140   7.6140   8.4633   8.4633

     occupation numbers 
     1.0000   1.0000   1.0000   1.0000   1.0000   1.0000   1.0000   1.0000
     0.0000   0.0000   0.0000   0.0000

          k =-0.1286-0.5143 0.6428 (  2127 PWs)   bands (ev):

    -2.7149  -2.7149  -0.3105  -0.3105   2.5219   2.5219   3.3813   3.3813
     7.9578   7.9578   9.2848   9.2848

     occupation numbers 
     1.0000   1.0000   1.0000   1.0000   1.0000   1.0000   1.0000   1.0000
     0.0000   0.0000   0.0000   0.0000

          k =-0.0643-0.4500 0.5785 (  2131 PWs)   bands (ev):

    -2.2434  -2.2434  -0.8118  -0.8118   1.9981   1.9981   3.4982   3.4982
     8.1734   8.1734  10.8565  10.8565

     occupation numbers 
     1.0000   1.0000   1.0000   1.0000   1.0000   1.0000   1.0000   1.0000
     0.0000   0.0000   0.0000   0.0000

          k = 0.0000-0.3857 0.5143 (  2128 PWs)   bands (ev):

    -2.6309  -2.6309  -0.4104  -0.4104   1.8934   1.8934   3.8228   3.8228
     8.5475   8.5475  11.2811  11.2811

     occupation numbers 
     1.0000   1.0000   1.0000   1.0000   1.0000   1.0000   1.0000   1.0000
     0.0000   0.0000   0.0000   0.0000

          k =-0.0643-0.5785 0.7071 (  2127 PWs)   bands (ev):

    -2.2254  -2.2254  -0.8917  -0.8917   2.9756   2.9756   3.0973   3.0973
     7.5422   7.5422   7.8115   7.8115

     occupation numbers 
     1.0000   1.0000   1.0000   1.0000   1.0000   1.0000   1.0000   1.0000
     0.0000   0.0000   0.0000   0.0000

          k =-0.0000-0.5143 0.6428 (  2132 PWs)   bands (ev):

    -1.7179  -1.7179  -1.3401  -1.3401   2.3113   2.3113   3.1701   3.1701
     7.8238   7.8238   9.0782   9.0782

     occupation numbers 
     1.0000   1.0000   1.0000   1.0000   1.0000   1.0000   1.0000   1.0000
     0.0000   0.0000   0.0000   0.0000

          k =-0.1928-0.4500 0.7071 (  2127 PWs)   bands (ev):

    -3.0855  -3.0855   0.1184   0.1184   2.4075   2.4075   3.5826   3.5826
     9.2784   9.2784   9.9111   9.9111

     occupation numbers 
     1.0000   1.0000   1.0000   1.0000   1.0000   1.0000   1.0000   1.0000
     0.0000   0.0000   0.0000   0.0000

          k =-0.1286-0.3857 0.6428 (  2130 PWs)   bands (ev):

    -2.4485  -2.4485  -0.5848  -0.5848   2.1263   2.1263   3.2609   3.2609
     9.6435   9.6435  10.0160  10.0160

     occupation numbers 
     1.0000   1.0000   1.0000   1.0000   1.0000   1.0000   1.0000   1.0000
     0.0000   0.0000   0.0000   0.0000

          k =-0.0643-0.4500 0.7071 (  2152 PWs)   bands (ev):

    -2.0381  -2.0381  -0.9346  -0.9346   2.3568   2.3568   2.7399   2.7399
     9.1931   9.1931   9.3990   9.3990

     occupation numbers 
     1.0000   1.0000   1.0000   1.0000   1.0000   1.0000   1.0000   1.0000
     0.0000   0.0000   0.0000   0.0000

          k = 0.0000-0.3857 0.6428 (  2149 PWs)   bands (ev):

    -1.8369  -1.8369  -1.1001  -1.1001   2.0753   2.0753   2.7768   2.7768
     9.5416   9.5416  10.8189  10.8189

     occupation numbers 
     1.0000   1.0000   1.0000   1.0000   1.0000   1.0000   1.0000   1.0000
     0.0000   0.0000   0.0000   0.0000

     highest occupied, lowest unoccupied level (ev):     6.2003    6.7983

!    total energy              =     -93.48660729 Ry
     Harris-Foulkes estimate   =     -93.48660729 Ry
     estimated scf accuracy    <          4.3E-13 Ry

     total all-electron energy =     -1160.178337 Ry

     The total energy is the sum of the following terms:

     one-electron contribution =       5.73715982 Ry
     hartree contribution      =       1.10051758 Ry
     xc contribution           =     -12.30839587 Ry
     ewald contribution        =     -16.79585050 Ry
     Dispersion Correction     =      -0.03335446 Ry
     one-center paw contrib.   =     -71.18668385 Ry
      -> PAW hartree energy AE =       2.97621720 Ry
      -> PAW hartree energy PS =      -2.96483286 Ry
      -> PAW xc energy AE      =     -40.87484507 Ry
      -> PAW xc energy PS      =       5.27011881 Ry
      -> total E_H with PAW    =       1.11190192 Ry
      -> total E_XC with PAW   =     -47.91312214 Ry

     convergence has been achieved in   8 iterations

     Forces acting on atoms (cartesian axes, Ry/au):

     atom    1 type  1   force =    -0.00000000   -0.00000000    0.00000000
     atom    2 type  1   force =     0.00000000    0.00000000   -0.00000000
     The non-local contrib.  to forces
     atom    1 type  1   force =    -0.00000000   -0.00000000    0.00000000
     atom    2 type  1   force =     0.00000000    0.00000000   -0.00000000
     The ionic contribution  to forces
     atom    1 type  1   force =    -0.00000000    0.00000000   -0.00000000
     atom    2 type  1   force =     0.00000000   -0.00000000    0.00000000
     The local contribution  to forces
     atom    1 type  1   force =    -0.00000000   -0.00000000    0.00000000
     atom    2 type  1   force =     0.00000000    0.00000000   -0.00000000
     The core correction contribution to forces
     atom    1 type  1   force =     0.00000000   -0.00000000   -0.00000000
     atom    2 type  1   force =    -0.00000000    0.00000000    0.00000000
     The Hubbard contrib.    to forces
     atom    1 type  1   force =     0.00000000    0.00000000    0.00000000
     atom    2 type  1   force =     0.00000000    0.00000000    0.00000000
     The SCF correction term to forces
     atom    1 type  1   force =    -0.00000000   -0.00000000   -0.00000000
     atom    2 type  1   force =    -0.00000000    0.00000000    0.00000000

     Dispersion contribution to forces:
     atom    1 type  1   force =     0.00000000   -0.00000000   -0.00000000
     atom    2 type  1   force =    -0.00000000    0.00000000   -0.00000000

     Total force =     0.000000     Total SCF correction =     0.000000

     Total Dispersion Force =     0.000000


     Computing stress (Cartesian axis) and pressure

     Message from routine stres:
     noncollinear stress + GGA not implemented

     Writing output data file GS.save/

     init_run     :      0.55s CPU      0.59s WALL (       1 calls)
     electrons    :      9.11s CPU      9.65s WALL (       1 calls)
     forces       :      0.13s CPU      0.14s WALL (       1 calls)

     Called by init_run:
     wfcinit      :      0.36s CPU      0.38s WALL (       1 calls)
     wfcinit:atom :      0.00s CPU      0.00s WALL (      56 calls)
     wfcinit:wfcr :      0.34s CPU      0.36s WALL (      56 calls)
     potinit      :      0.12s CPU      0.13s WALL (       1 calls)
     hinit0       :      0.04s CPU      0.05s WALL (       1 calls)

     Called by electrons:
     c_bands      :      7.45s CPU      7.69s WALL (       9 calls)
     sum_band     :      0.77s CPU      0.83s WALL (       9 calls)
     v_of_rho     :      0.05s CPU      0.05s WALL (       9 calls)
     v_h          :      0.00s CPU      0.00s WALL (       9 calls)
     v_xc         :      0.05s CPU      0.05s WALL (      10 calls)
     newd         :      0.02s CPU      0.02s WALL (       9 calls)
     PAW_pot      :      0.86s CPU      0.98s WALL (       9 calls)
     mix_rho      :      0.01s CPU      0.01s WALL (       9 calls)

     Called by c_bands:
     init_us_2    :      0.04s CPU      0.04s WALL (    1120 calls)
     cegterg      :      7.37s CPU      7.61s WALL (     504 calls)

     Called by sum_band:
     sum_band:bec :      0.01s CPU      0.01s WALL (     504 calls)
     addusdens    :      0.02s CPU      0.02s WALL (       9 calls)

     Called by *egterg:
     h_psi        :      4.20s CPU      4.39s WALL (    1894 calls)
     s_psi        :      0.08s CPU      0.08s WALL (    1894 calls)
     g_psi        :      0.01s CPU      0.01s WALL (    1334 calls)
     cdiaghg      :      2.53s CPU      2.59s WALL (    1782 calls)
     cegterg:over :      0.39s CPU      0.40s WALL (    1334 calls)
     cegterg:upda :      0.23s CPU      0.24s WALL (    1334 calls)
     cegterg:last :      0.08s CPU      0.08s WALL (     505 calls)
     cdiaghg:chol :      0.20s CPU      0.21s WALL (    1782 calls)
     cdiaghg:inve :      0.05s CPU      0.05s WALL (    1782 calls)
     cdiaghg:para :      0.21s CPU      0.22s WALL (    3564 calls)

     Called by h_psi:
     h_psi:pot    :      4.19s CPU      4.38s WALL (    1894 calls)
     h_psi:calbec :      0.24s CPU      0.25s WALL (    1894 calls)
     vloc_psi     :      3.85s CPU      4.03s WALL (    1894 calls)
     add_vuspsi   :      0.09s CPU      0.09s WALL (    1894 calls)

     General routines
     calbec       :      0.34s CPU      0.35s WALL (    2622 calls)
     fft          :      0.02s CPU      0.02s WALL (     135 calls)
     ffts         :      0.00s CPU      0.00s WALL (      36 calls)
     fftw         :      4.15s CPU      4.35s WALL (   80224 calls)

     Parallel routines
     fft_scatt_xy :      0.26s CPU      0.28s WALL (   80395 calls)
     fft_scatt_yz :      2.32s CPU      2.44s WALL (   80395 calls)

     PAW routines
     PAW_pot      :      0.86s CPU      0.98s WALL (       9 calls)
     PAW_symme    :      0.01s CPU      0.01s WALL (      18 calls)

     PWSCF        :     10.99s CPU     14.80s WALL


   This run was terminated on:  16:51:26   3Aug2019            

=------------------------------------------------------------------------------=
   JOB DONE.
=------------------------------------------------------------------------------=
